ITEM: TIMESTEP
0
ITEM: NUMBER OF ATOMS
62500
ITEM: BOX BOUNDS pp pp pp
-5.3745846689637631e+00 9.7874584668942006e+01
-5.3745846689637631e+00 9.7874584668942006e+01
-5.3745846689637631e+00 1.8787458466894199e+02
ITEM: ATOMS id type x y z c_pe_atom c_ke_atom
57952 2 11.4297 -3.94347 -2.89871 -3.42834 0
21686 2 25.1831 18.802 7.79513 -3.53229 0
748 1 14.8884 20.5634 4.87094 -6.72935 0
1582 1 3.86753 19.773 15.1787 -6.53066 0
9337 1 13.7994 20.3618 13.1199 -6.70371 0
44418 1 8.24321 -4.92363 15.6424 -6.50103 0
42242 2 15.1632 8.28635 -1.09787 -3.51393 0
955 1 20.078 5.0173 -2.88058 -6.37433 0
7339 2 28.199 6.26114 -1.3816 -3.49839 0
12519 2 -0.0910999 11.9724 0.445581 -3.52821 0
8980 2 24.6413 21.3187 7.76929 -3.47334 0
42491 2 19.6453 29.0276 8.08528 -3.46638 0
6480 2 10.6176 10.3342 -1.8349 -3.50293 0
7892 1 15.5868 14.4458 -1.61306 -6.51318 0
7574 2 16.6122 28.1763 3.75852 -3.47873 0
17282 1 27.2349 10.6299 19.9754 -6.3217 0
20093 2 1.46591 1.21702 -0.0482386 -3.4688 0
31375 1 23.9931 22.1306 17.5393 -6.69085 0
5722 1 5.41798 23.9258 -0.612937 -6.39727 0
28857 2 9.65187 15.0741 5.33737 -3.44467 0
4 1 -3.88052 1.97296 8.371 -6.70068 0
11419 2 21.882 21.841 8.4392 -3.46804 0
8724 2 -5.09342 3.05769 -4.93371 -2.86483 0
43105 1 4.57438 1.58593 4.38899 -6.52767 0
5516 1 22.2236 17.5142 11.5441 -6.26612 0
6438 1 11.1315 24.2534 2.9687 -6.41945 0
58369 2 -0.577789 20.6528 12.0614 -3.48557 0
48510 2 4.47781 7.8384 1.21959 -3.40867 0
9010 1 18.0458 2.48366 1.42504 -6.49429 0
22360 1 2.28104 9.36377 10.6826 -6.5525 0
44144 1 11.2968 21.8688 8.95613 -6.39822 0
7055 1 16.8059 -4.4592 10.1933 -6.553 0
1604 1 0.895268 11.8771 16.4241 -6.46041 0
14684 1 23.6018 -4.71763 15.8875 -6.39674 0
30772 2 26.071 3.31977 10.4574 -3.42466 0
50961 1 23.2112 28.935 -0.046695 -6.58229 0
14744 2 19.8517 9.96114 2.41659 -3.34557 0
17422 2 4.00875 -4.88215 13.0306 -3.57468 0
18883 1 28.2039 3.70046 0.185049 -6.38762 0
7519 1 -0.527793 3.13692 4.13345 -6.49498 0
1418 1 3.2724 6.40663 17.4249 -6.39035 0
7169 1 23.618 -2.17588 6.81079 -6.42384 0
22577 1 16.2343 1.41884 -3.42378 -5.72852 0
3381 1 8.01452 -4.88431 6.74799 -6.52192 0
7054 2 27.4013 28.7247 18.017 -3.54831 0
35890 1 23.6846 4.19527 1.8536 -6.68586 0
1032 1 22.3058 19.8612 -1.73928 -6.6622 0
16984 2 17.6696 -2.97794 15.6636 -3.36216 0
32129 2 7.54314 20.9174 17.7231 -3.44207 0
15382 1 -3.40114 -4.79796 5.3292 -6.45875 0
43377 1 2.80618 0.433632 -4.53497 -4.38666 0
31390 1 8.12556 17.652 17.4254 -6.67153 0
43457 1 -5.209 16.4435 2.98464 -6.40998 0
34871 1 18.0426 28.7247 -3.68476 -5.75442 0
15108 2 9.8156 3.47402 13.2231 -3.52215 0
2103 1 17.1436 9.66509 3.29466 -6.65725 0
36718 2 10.2551 -0.383562 7.41812 -3.53138 0
3082 1 9.98902 13.0835 9.61233 -6.24727 0
15490 1 20.9647 0.0467735 14.5277 -6.40639 0
62076 2 12.7297 -2.03483 -1.6174 -3.46822 0
15444 2 24.3941 3.18109 -1.86198 -3.52705 0
10213 2 -4.62759 10.8363 13.9417 -3.48333 0
48478 1 4.5376 14.964 6.82022 -6.58217 0
538 1 9.37729 -3.66787 -5.18007 -3.93926 0
52144 2 -0.70859 25.5239 -3.27864 -3.13397 0
1417 2 24.3216 24.448 -0.23941 -3.34942 0
29852 1 23.5351 25.4286 11.9459 -6.27856 0
34336 1 -1.83592 13.17 4.02255 -6.5093 0
15641 2 -0.522145 -0.156833 16.7518 -3.48768 0
36191 1 10.9508 -2.26572 12.13 -6.52989 0
14900 1 3.48249 15.9497 18.4054 -6.65901 0
14601 1 9.20105 8.26259 16.0703 -6.54876 0
57625 1 21.1094 -0.482816 7.70231 -6.54607 0
998 2 -2.78238 10.5207 19.1056 -3.37124 0
48239 2 14.9102 10.3515 1.55548 -3.41916 0
28527 1 7.30961 3.5311 8.28475 -6.56216 0
14265 2 19.0436 -0.797879 6.02987 -3.47434 0
23631 2 27.2774 4.31284 -2.83655 -3.39169 0
24567 2 15.5027 7.7019 4.47662 -3.40401 0
57303 1 -4.42886 1.97755 11.5299 -6.64176 0
46133 2 4.28106 21.985 13.418 -3.57239 0
5247 2 28.9812 23.1639 14.8437 -3.48818 0
15523 2 6.23216 24.8486 6.83748 -3.38578 0
398 1 18.1968 11.9446 8.16796 -6.4895 0
1336 1 6.1358 5.15838 11.0237 -6.37294 0
50864 2 7.9606 6.84712 19.7895 -3.40884 0
57958 2 -0.288214 -3.59541 8.27902 -3.36707 0
8419 2 18.1549 13.6854 16.7641 -3.58622 0
921 1 14.5877 -2.47211 11.4648 -6.55939 0
9890 1 15.0843 24.8285 15.0572 -6.73405 0
22583 1 10.8005 12.1275 -4.2086 -4.474 0
7050 1 17.2135 25.5559 -3.06644 -6.21474 0
43482 1 4.85037 16.1846 3.30358 -6.36485 0
43264 1 -3.58052 15.2606 0.402155 -6.53881 0
44008 1 1.27303 -4.08735 13.429 -6.38144 0
3490 1 18.9826 5.90738 18.9996 -6.41333 0
45475 1 5.94507 19.7671 8.34912 -6.53612 0
50934 1 -0.960484 26.0812 10.0019 -6.5185 0
21332 2 15.6061 1.47667 2.93705 -3.52151 0
15623 2 20.4164 0.0819141 -1.30357 -3.40028 0
840 1 9.60556 19.4272 8.94829 -6.41853 0
28616 2 27.0021 20.3802 -0.683217 -3.45818 0
1583 2 8.34208 18.459 6.71218 -3.51198 0
15509 1 19.8424 9.52369 -0.80729 -6.50569 0
434 1 9.10341 2.66398 -0.885208 -6.3283 0
14682 2 6.64362 2.1108 2.72665 -3.34644 0
21615 1 23.7319 13.3367 1.80718 -6.55527 0
16019 1 10.3061 5.27713 -0.651325 -6.65314 0
29656 1 -2.36102 10.1042 0.128968 -6.55603 0
49429 1 17.0155 27.0576 11.3474 -6.17962 0
55621 1 12.7085 6.18485 19.9211 -6.49172 0
317 1 15.3911 4.6071 7.38539 -6.43857 0
15239 1 -2.20415 -3.97642 10.4372 -6.5402 0
10009 2 7.88376 23.9204 14.5307 -3.54419 0
42645 2 -1.42597 5.34389 17.6565 -3.51452 0
45132 2 0.364439 0.466626 5.25539 -3.44389 0
17157 1 7.26113 16.325 5.01607 -6.55535 0
1734 2 -0.281685 5.38372 1.93932 -3.38844 0
58172 2 10.6067 7.03573 6.70411 -3.48619 0
587 1 2.27457 19.585 0.943568 -6.78952 0
8246 2 5.85065 22.5274 7.45699 -3.53283 0
7614 1 12.7282 24.5795 -0.167763 -6.53744 0
87 2 19.6015 -4.45023 16.0565 -3.40543 0
56316 1 16.5678 22.3797 -4.17873 -5.06892 0
7863 1 -3.46503 19.9124 15.403 -6.57724 0
49502 2 4.25712 11.3121 -0.498451 -3.48469 0
36456 2 -4.47331 16.9654 20.1132 -3.50134 0
191 1 -0.42714 12.6288 19.3546 -6.64531 0
309 1 13.7634 9.25114 14.4158 -6.64246 0
22937 1 14.1208 17.5656 5.66931 -6.75083 0
470 2 7.49549 6.26711 8.93671 -3.45447 0
7089 1 5.2644 10.3967 9.86352 -6.39327 0
17814 2 16.4763 19.126 6.31948 -3.47571 0
13140 2 18.7607 17.6641 14.9881 -3.51323 0
50790 2 -0.492259 20.7186 16.133 -3.35786 0
12706 2 19.678 5.59292 9.68739 -3.52706 0
1410 1 -3.55093 0.155476 17.2679 -6.72417 0
41690 1 21.6614 2.80805 15.0184 -6.49767 0
7582 1 10.1489 19.9777 16.8753 -6.36099 0
50762 1 0.362021 25.0147 13.329 -6.46328 0
8654 2 10.8557 18.0277 6.44369 -3.44924 0
43372 2 8.96736 -3.42623 13.5424 -3.46231 0
22879 1 3.37494 7.42585 4.26419 -6.91038 0
48070 2 -4.71905 6.45395 13.9154 -3.48349 0
22314 2 8.54252 -1.16493 13.8407 -3.42951 0
1899 2 16.976 -3.7094 1.78695 -3.40548 0
15460 1 8.38267 0.625306 1.62028 -6.58712 0
43923 1 8.42434 -4.4802 11.1112 -6.2954 0
49873 2 11.2161 -5.02333 15.6794 -3.39132 0
42924 1 4.22915 20.9095 3.61364 -6.51144 0
8172 1 11.8115 10.676 9.58969 -6.6049 0
50274 1 1.06454 16.025 -5.22694 -3.66225 0
21319 2 14.4642 14.7269 -4.20767 -3.01296 0
21901 1 15.0548 2.86813 0.399942 -6.41292 0
36996 1 12.8829 9.5505 -0.044057 -6.68753 0
35417 2 1.56553 18.0288 5.10144 -3.42943 0
51094 2 18.387 0.455719 8.30474 -3.48126 0
15141 1 5.156 -4.53215 -2.1071 -6.39337 0
42344 2 4.80758 3.52414 1.93448 -3.49148 0
27745 1 14.1656 3.85862 15.7868 -6.79475 0
44006 1 3.69599 -2.27025 13.5376 -6.12082 0
5101 1 14.5926 19.4612 -0.462892 -6.6574 0
2280 2 9.9525 10.146 20.3967 -3.46207 0
1277 1 14.7436 7.52057 1.56986 -6.82407 0
36112 2 27.3021 4.6013 12.0995 -3.48396 0
7120 1 7.77576 1.91158 14.6094 -6.48274 0
8401 1 7.47196 24.3753 17.5529 -6.64208 0
6954 2 19.9979 4.94905 13.719 -3.49676 0
1449 2 2.31413 22.2994 2.01787 -3.54565 0
744 1 10.1647 -0.586184 4.68854 -6.52155 0
55321 1 1.38477 -0.630838 -2.10289 -6.48884 0
8447 1 22.6011 14.6422 4.71331 -6.57381 0
2819 1 23.3656 8.49574 16.4256 -6.63621 0
14977 1 8.67474 -4.33317 1.17887 -6.47528 0
15185 2 28.3052 2.56917 13.4077 -3.49418 0
10373 2 0.376741 19.6774 18.1517 -3.411 0
7025 2 -2.46022 24.3445 3.21067 -3.51344 0
6165 1 -0.964619 -0.382143 0.0144722 -6.57868 0
34594 2 19.8185 -4.62453 8.27275 -3.45308 0
8213 2 -4.39589 23.4008 4.356 -3.48601 0
12804 1 8.29238 24.0544 -1.49818 -6.64533 0
35501 2 15.7296 23.0161 5.52797 -3.46652 0
36913 1 28.3586 24.221 17.6636 -6.20607 0
20611 1 24.7322 -4.02106 -2.78149 -6.21354 0
1340 2 0.460056 7.27769 11.2507 -3.48759 0
42664 2 -2.68822 25.4402 -1.7794 -3.52207 0
7847 1 22.1681 18.4819 4.468 -6.41438 0
52746 2 -0.290254 7.44409 14.3275 -3.52025 0
43873 2 3.03461 1.19577 11.3069 -3.49657 0
22357 1 25.8307 25.8957 5.5657 -6.46278 0
7844 2 22.1092 26.0452 1.89188 -3.28084 0
1570 1 27.5346 15.5086 10.5401 -6.78764 0
2393 1 8.38796 10.656 8.48955 -6.4091 0
22396 1 25.4836 1.00699 18.2184 -6.44799 0
2688 2 -4.94642 23.7019 -3.51809 -3.1423 0
44026 2 -4.28221 7.84043 -3.16035 -3.18991 0
58077 2 12.8729 1.5074 17.7554 -3.44995 0
17815 2 -0.156204 15.1827 8.63513 -3.49893 0
1836 2 23.9153 2.63328 10.8661 -3.4249 0
4085 1 -4.21742 20.2141 -0.433084 -6.62267 0
9560 1 22.557 21.8944 5.46365 -6.66501 0
48311 2 19.0461 7.15072 16.616 -3.41985 0
9898 1 15.3403 12.2318 3.92089 -6.35289 0
1079 1 -1.79626 2.6356 13.5383 -6.38139 0
25800 2 15.9874 14.9942 12.096 -3.46468 0
43584 2 17.8954 -1.04862 19.6205 -3.5294 0
44652 2 9.95474 16.9178 13.2843 -3.528 0
2767 1 1.56551 20.4185 -3.72337 -5.02576 0
21093 2 16.855 9.20192 -2.59184 -3.50517 0
44475 2 -3.61057 -3.76816 -3.94362 -2.96567 0
903 2 8.636 18.3279 14.639 -3.51459 0
3328 1 -3.82654 15.5855 17.777 -6.73209 0
21237 1 19.8195 -4.67482 2.90425 -6.57938 0
10425 2 15.3081 -2.51261 5.57429 -3.39605 0
81 1 3.13753 8.33425 -0.931944 -6.33215 0
8821 1 -4.18841 23.2694 -0.763599 -6.55628 0
19477 2 25.283 28.9214 9.11082 -3.39916 0
23650 2 28.3697 7.33332 15.1157 -3.53989 0
36928 1 14.4078 -4.52493 16.4639 -6.60541 0
875 2 11.1345 0.981074 2.20638 -3.4947 0
50037 2 -3.62781 17.9375 1.09086 -3.49752 0
391 2 -1.45409 21.0457 4.09844 -3.50096 0
16374 2 5.81261 25.2894 20.2306 -3.48489 0
43586 1 8.4731 8.14944 -1.07049 -6.52969 0
8146 1 2.51538 13.0653 0.929678 -6.34169 0
10074 1 23.2355 19.097 18.4146 -6.51348 0
55572 2 24.2578 -1.42915 -4.43279 -3.04588 0
37025 2 -4.0128 13.3991 15.7967 -3.47599 0
36370 2 21.3297 16.8438 -2.62996 -3.48456 0
3085 2 16.2189 12.816 -4.10185 -2.98459 0
6434 2 17.291 28.4914 18.9161 -3.52877 0
1627 1 0.869013 13.1396 -1.68787 -6.40329 0
25051 2 25.4736 -4.41277 17.9133 -3.52406 0
20063 2 -4.61099 1.90015 5.57086 -3.51713 0
30877 1 21.641 27.4221 15.5757 -6.39981 0
2195 1 -1.62654 -5.12101 -2.57234 -6.29678 0
38130 2 18.7816 3.55773 17.5511 -3.41893 0
7244 1 -4.99535 0.0872883 3.20742 -6.79206 0
2677 1 1.60699 8.72568 16.3829 -6.61222 0
43137 2 5.61322 8.81583 5.55219 -3.46239 0
8397 2 14.5334 18.1629 11.1419 -3.4607 0
6748 1 22.0042 4.17553 9.71781 -6.62393 0
22652 2 26.914 24.5521 -1.28479 -3.39088 0
20250 2 25.0053 10.1136 -2.5707 -3.41356 0
1816 1 10.3219 7.82641 18.988 -6.56339 0
1924 2 27.549 22.8938 10.6645 -3.50613 0
452 1 17.2787 0.967206 18.0631 -6.35693 0
50626 2 27.2841 28.4698 10.3794 -3.52806 0
57366 1 3.30719 -1.52332 16.4066 -6.39329 0
413 1 -3.51991 21.8876 2.1146 -6.72995 0
13344 1 14.0507 17.1766 -3.03566 -5.89296 0
28902 1 25.0317 19.6043 4.96615 -6.71726 0
14163 1 8.49593 15.5218 15.2224 -6.68713 0
34077 1 23.4582 17.3787 -0.537019 -6.71444 0
50288 1 3.3445 26.4015 -0.285871 -6.53093 0
766 1 24.4253 -2.52331 10.9192 -6.34098 0
5686 2 10.3292 1.11273 -2.71015 -3.4599 0
58615 1 -1.44638 2.85734 10.6448 -6.66283 0
50986 1 -3.40017 20.4286 12.4766 -6.72352 0
15240 1 2.58596 3.25864 13.6438 -6.49418 0
48357 2 4.21053 21.9716 9.19271 -3.53748 0
5365 2 9.92349 14.9567 -3.57035 -3.35698 0
42796 1 -1.73484 8.28983 2.72282 -6.46162 0
53734 2 27.9939 6.30883 0.990734 -3.49849 0
22733 2 24.1513 26.5794 0.855186 -3.46024 0
48561 1 19.2638 27.9102 5.52477 -6.50709 0
40841 2 20.494 20.6206 10.1003 -3.46588 0
44825 2 -4.3431 21.2199 -3.06092 -3.30261 0
43938 2 4.69943 4.60966 8.83842 -3.48603 0
7151 1 -3.43525 15.8936 12.0305 -6.47955 0
42186 2 9.93511 24.8168 15.4864 -3.40684 0
337 1 22.8288 -0.702551 1.82069 -6.20871 0
15714 2 28.1681 -1.79422 13.9626 -3.47435 0
28245 2 7.63955 0.290348 12.204 -3.43301 0
1440 1 -1.32272 -2.82189 1.86004 -6.58035 0
6038 1 -1.74476 -0.0143694 2.96965 -6.14759 0
16108 2 20.3884 -1.86353 3.17329 -3.54314 0
8700 2 -2.05414 24.4792 11.9405 -3.43933 0
420 1 23.8036 24.5979 3.0907 -6.51922 0
230 1 24.0281 21.3529 2.6637 -6.33342 0
33634 2 22.3048 -4.08876 -1.40318 -3.53909 0
15035 1 5.12015 12.1135 13.4555 -6.50209 0
5622 1 6.22611 26.9008 -1.50158 -6.38093 0
7813 1 8.09088 12.0782 18.8782 -6.70035 0
15547 1 15.5109 -1.43115 3.28243 -6.46825 0
48669 2 2.23664 23.2186 4.29106 -3.47784 0
30429 1 5.39851 24.7834 12.9902 -6.33481 0
27206 1 26.6874 7.63428 12.6862 -6.54836 0
36013 2 15.9988 17.2515 -1.1847 -3.47903 0
952 1 2.75749 0.475886 7.02037 -6.69772 0
42436 1 25.87 -1.61126 2.19563 -6.52209 0
38949 1 28.7121 -3.49295 11.5316 -6.31077 0
10026 2 -2.49904 16.6632 6.58495 -3.51345 0
61796 2 8.12981 -1.87445 11.3089 -3.5576 0
16490 2 16.3477 15.3869 0.796031 -3.47805 0
7538 1 12.6345 16.9857 12.4823 -6.51823 0
37396 1 -5.21538 26.7721 8.1325 -6.49666 0
7152 1 -3.79708 3.68668 18.0716 -6.42782 0
2714 1 -3.049 16.2584 9.19673 -6.39138 0
62414 1 3.45597 -4.96978 -4.65451 -4.9516 0
7860 1 9.25127 20.9858 -1.75618 -6.31887 0
211 2 12.4939 11.8693 -1.87895 -3.50273 0
8366 1 6.10762 27.144 17.2276 -6.74737 0
24499 1 27.0807 5.86849 19.6267 -6.80008 0
10293 2 16.7885 16.9617 18.6458 -3.42423 0
28782 1 26.0705 11.8755 8.43804 -6.47767 0
52737 1 -3.15021 -2.06601 4.45047 -5.9693 0
45536 2 19.6778 13.8348 19.7855 -3.50657 0
43 1 3.56321 10.3551 2.11208 -6.56135 0
23425 2 4.86101 23.5167 5.20447 -3.41356 0
12242 2 2.41106 28.8438 -1.49612 -3.54431 0
24645 1 23.366 23.1094 14.5146 -6.2353 0
35142 2 8.25097 11.4842 6.04949 -3.52543 0
2643 1 23.9472 10.6051 14.0729 -6.38929 0
7085 2 2.68716 7.10292 -5.10503 -2.5202 0
58019 2 -0.73076 -2.61619 12.2583 -3.48644 0
10490 1 0.224822 -1.2878 14.3867 -6.45025 0
49988 2 11.1515 20.0246 2.59693 -3.49582 0
44244 1 13.8787 5.72812 9.97635 -6.58111 0
946 1 23.207 27.4818 5.1799 -6.46795 0
35841 1 15.6602 6.6897 12.7333 -6.33441 0
8893 2 17.4591 10.9971 16.2139 -3.46453 0
21836 2 10.1558 23.8204 13.4113 -3.50194 0
20516 2 14.1633 15.9369 10.2491 -3.48971 0
43841 1 9.55082 -4.2457 4.07018 -6.40084 0
7686 2 3.90361 18.544 19.6249 -3.48277 0
1569 1 16.4995 -4.44312 -1.12116 -6.38213 0
11225 2 8.5538 -0.106697 19.163 -3.46795 0
2019 1 4.64263 14.537 11.3205 -6.41305 0
45394 1 -2.98081 8.66195 14.1915 -6.63566 0
1125 2 24.3897 7.67276 10.5588 -3.44078 0
297 1 10.6749 -2.32443 15.4008 -6.64015 0
2838 1 -0.183391 23.1283 10.8702 -6.27199 0
44352 1 17.5132 3.58636 -1.35655 -6.48906 0
7657 1 27.1768 23.447 -4.06881 -5.2465 0
4097 2 24.8181 19.9822 0.179302 -3.46422 0
23498 2 6.65457 21.0881 10.6022 -3.38126 0
58156 1 -4.96034 -3.86052 11.3709 -6.52535 0
720 1 0.0760156 24.8036 -0.354706 -6.60188 0
24959 2 5.25986 -3.29458 15.7634 -3.52065 0
54187 2 4.37365 25.9431 10.598 -3.57154 0
55051 1 6.08535 21.3729 -2.23041 -6.45636 0
16887 1 23.9784 -2.19586 14.1073 -6.59693 0
14195 1 4.35168 3.37199 18.1864 -6.47595 0
17081 2 12.2989 -4.66394 -5.17912 -2.6608 0
51103 1 20.4843 27.6676 -2.51144 -6.21884 0
15103 1 12.2927 -3.94574 7.70534 -6.42073 0
57928 2 -2.02246 -2.15078 16.2518 -3.51089 0
1229 2 6.1032 -0.377119 0.389452 -3.54172 0
20383 1 22.8577 -2.78563 3.73827 -6.2499 0
31100 2 5.22201 6.52206 19.7413 -3.26862 0
7829 2 25.7253 20.9421 -4.79866 -2.80831 0
22611 1 23.3226 5.64797 -3.04914 -6.09301 0
6283 2 12.0224 15.3478 -4.90046 -2.59818 0
29854 2 26.626 9.61282 4.3318 -3.47465 0
35602 2 13.4063 23.1048 13.1185 -3.53381 0
7520 1 -0.952711 23.8799 7.58252 -6.75669 0
47824 1 7.33552 15.3968 -5.0966 -4.20398 0
49254 2 24.3695 26.0004 19.7688 -3.39933 0
20737 2 -1.93697 18.6602 -0.931895 -3.48883 0
15968 2 14.2215 3.52588 5.28939 -3.4626 0
1717 1 25.8219 27.2543 -1.05309 -6.63212 0
35715 2 26.7336 11.633 -4.04632 -3.20028 0
43967 1 -1.31846 5.30954 -0.931416 -6.43312 0
31884 1 2.93593 16.8328 15.4076 -6.64089 0
10020 2 -2.78025 23.3716 9.77552 -3.39497 0
42392 1 1.07776 -2.45942 6.11648 -6.58404 0
44304 2 22.5554 9.81655 -1.37008 -3.51716 0
57152 1 5.91032 22.2767 15.6717 -6.62572 0
3440 1 21.6029 4.03295 18.3373 -6.59338 0
50464 2 10.9695 23.2218 -1.9054 -3.38961 0
36920 2 27.2782 6.81544 6.58472 -3.47489 0
6860 2 4.71071 3.65018 -1.98449 -3.45133 0
7155 1 9.96523 16.9668 10.6858 -6.07141 0
728 1 15.7224 11.307 18.9645 -6.51731 0
51248 1 3.0639 24.1025 14.8874 -6.64618 0
20581 1 0.536881 -3.11094 16.7663 -6.55345 0
20149 2 5.95007 -1.80503 -1.68408 -3.50992 0
611 1 18.0749 0.278803 3.7476 -6.55446 0
20653 1 19.5331 -2.72671 -5.06175 -3.84349 0
8450 2 12.5948 -1.81002 9.70102 -3.47885 0
15020 1 11.48 -4.60656 1.88531 -6.14645 0
24098 1 22.0426 27.9188 10.3545 -6.57495 0
20096 2 0.74228 0.701952 2.43953 -3.42202 0
36787 2 21.1455 22.7262 16.3816 -3.37707 0
7143 1 1.071 12.488 3.39108 -6.49433 0
8391 1 17.3717 8.63235 17.9897 -6.5727 0
43440 1 18.4499 6.34729 11.9376 -6.35858 0
22682 2 3.17027 18.297 3.27085 -3.49337 0
48623 2 0.0156765 1.05205 -4.06469 -3.08099 0
58138 2 13.6222 14.2739 12.3108 -3.47721 0
23839 1 14.1262 22.6601 10.3797 -6.46071 0
47182 1 -3.24114 -2.25655 13.3503 -6.44178 0
122 1 24.1807 9.93607 3.30222 -6.61936 0
19772 1 4.94531 -2.00066 -4.17166 -5.40717 0
27679 1 24.8398 7.89206 5.73562 -6.57552 0
6093 1 -4.69476 0.283992 14.3484 -6.32309 0
7826 1 12.3988 27.2006 18.607 -6.63256 0
50186 2 4.12382 -5.25121 3.29713 -3.46578 0
1241 2 17.3466 28.1494 1.31847 -3.46852 0
43106 2 28.3283 0.440955 14.8893 -3.47458 0
23898 1 21.6142 2.77754 6.79233 -6.69381 0
32142 2 23.8804 16.8339 6.34597 -3.49401 0
384 2 6.94922 19.2882 -0.10408 -3.525 0
26776 2 13.1717 -4.1999 20.265 -3.52455 0
42658 2 24.9079 13.5262 -3.5104 -3.38661 0
3274 2 27.7207 27.2691 0.978358 -3.40074 0
21731 1 16.2063 23.5044 17.9602 -6.36535 0
50419 1 -3.32705 18.7392 -3.54829 -5.12071 0
43921 1 7.65124 -2.61208 20.0648 -6.14177 0
21207 2 8.28492 25.9483 6.33244 -3.44789 0
10679 2 25.171 21.0141 14.9932 -3.51328 0
1660 1 15.8613 6.03157 20.1385 -6.6301 0
6586 1 18.2029 -1.7307 -0.872384 -6.59918 0
23235 2 -3.93985 23.1872 11.8571 -3.31196 0
56804 1 -3.08966 15.5457 -3.71801 -5.32513 0
29010 2 22.1067 24.1348 0.386007 -3.43294 0
15428 2 14.8975 21.3746 -2.35271 -3.49245 0
14257 2 3.28584 19.5038 8.29841 -3.53346 0
23149 2 20.7357 17.8114 -0.341032 -3.54847 0
46770 2 -5.03091 16.7929 7.472 -3.48033 0
9993 1 14.4744 19.9508 -4.49673 -3.92968 0
5163 1 0.884744 9.56825 4.39264 -6.57836 0
50112 2 15.8706 -4.26593 13.1907 -3.34659 0
19217 2 28.0864 13.0791 16.3607 -3.53292 0
1366 1 27.1319 2.19877 6.04735 -6.58388 0
1452 1 24.5435 5.13659 12.1706 -6.94678 0
37454 2 0.408583 4.82876 -3.15812 -3.34225 0
48914 1 10.019 20.715 6.40635 -6.4066 0
14846 1 27.3991 9.04931 10.0838 -6.511 0
31840 1 -0.0564677 -3.04783 -0.912615 -6.23703 0
3906 2 25.7919 13.4753 11.3807 -3.36353 0
51125 2 26.461 -0.720738 15.8387 -3.48555 0
14676 2 12.9359 22.5389 -3.41582 -2.97612 0
214 1 6.8854 6.5501 4.09737 -6.52726 0
14622 1 5.6363 6.14901 6.76564 -6.57286 0
21933 1 19.4858 -1.09056 17.3044 -6.81754 0
21783 2 24.2935 15.4067 11.311 -3.44146 0
28114 1 13.8013 18.655 2.60081 -6.52735 0
20665 1 5.99826 -0.625879 14.6351 -6.66941 0
1842 2 -1.39272 14.0603 12.6715 -3.39238 0
18039 1 1.23738 4.05989 18.2105 -6.49898 0
250 2 0.69646 10.0258 1.60756 -3.34903 0
23576 2 20.8206 18.1758 16.9883 -3.51463 0
20699 1 20.7085 -3.00567 6.04771 -6.52058 0
30851 2 5.06719 17.9944 17.2091 -3.5144 0
20920 1 18.034 7.33813 -4.5602 -4.53996 0
36124 2 19.0756 20.9171 2.36639 -3.50288 0
105 1 2.64844 11.6983 8.71042 -6.32756 0
51503 1 -4.2356 7.20149 11.1042 -6.59169 0
8290 1 5.04205 28.7377 4.22089 -6.54611 0
29657 1 19.8955 -4.88091 12.793 -6.44631 0
43127 2 25.4545 17.7189 10.5712 -3.42265 0
23711 1 6.50527 9.8563 15.0599 -6.69261 0
970 2 -5.02351 -2.34336 15.5992 -3.51212 0
21678 2 26.1592 4.87192 5.96717 -3.32838 0
43936 1 0.88103 14.8653 16.4864 -6.44287 0
15245 2 12.748 6.32795 3.35902 -3.48136 0
13878 2 -1.9104 0.241773 14.8111 -3.49137 0
38350 2 5.59056 -3.9087 6.25406 -3.39045 0
30788 1 -2.90814 5.03653 2.34992 -6.5379 0
50785 1 0.848217 26.6426 7.16629 -6.5152 0
50392 2 23.1305 28.8841 8.22195 -3.321 0
62123 2 3.96734 10.2171 4.75021 -3.48947 0
1043 2 4.46138 19.6275 -3.32451 -3.42183 0
1533 1 17.8517 1.7423 10.7455 -6.66792 0
48219 2 25.2629 8.94628 -4.99921 -2.71397 0
2097 1 26.4873 13.4577 18.6092 -6.53441 0
31192 1 19.9157 20.1869 15.1802 -6.48576 0
678 1 23.1018 12.5466 12.086 -6.39062 0
2754 1 0.0394657 16.3253 13.5679 -6.5198 0
8743 2 5.5911 8.79489 3.07272 -3.52534 0
27715 1 17.6118 24.8115 13.3683 -6.45112 0
45610 2 0.138335 12.6072 8.41299 -3.52335 0
20068 2 5.11763 17.4453 -4.75395 -2.89142 0
9962 1 -4.29224 18.8411 18.2106 -6.37282 0
6803 1 14.6941 -4.42657 -3.25589 -5.95808 0
2447 1 15.0109 7.72481 7.4721 -6.7824 0
43270 2 6.59532 20.428 -4.76573 -2.76965 0
52367 2 4.89664 12.536 -3.51293 -3.25212 0
48723 2 13.63 2.23576 -4.26782 -3.17719 0
26600 2 20.4006 1.73573 9.35327 -3.46008 0
27047 1 28.135 17.7325 -1.94228 -6.71312 0
3007 1 11.2314 14.2572 14.2487 -6.39487 0
17697 1 11.4361 12.2782 12.2444 -6.31332 0
21987 2 22.1409 2.84349 -3.18037 -3.27551 0
55904 2 6.59468 16.928 7.53868 -3.50077 0
8439 2 12.0677 8.7045 16.7381 -3.47455 0
5385 1 8.16291 28.1741 4.3183 -6.28414 0
43750 1 28.3462 8.46291 17.9449 -6.64756 0
15828 2 10.7651 28.9548 -2.65438 -3.45731 0
23002 2 -0.590539 12.0702 12.137 -3.34741 0
35907 1 28.1151 -4.35422 18.5084 -6.65772 0
29537 2 6.94666 14.2499 13.1702 -3.51248 0
44020 2 9.29437 8.07237 8.48518 -3.39175 0
7971 1 -4.61734 23.4958 7.02562 -6.60636 0
48846 1 -3.51635 26.8506 2.90075 -6.53538 0
9062 2 -3.3473 25.9829 16.8544 -3.43185 0
1574 2 6.28145 13.6469 5.01013 -3.53002 0
95 1 -4.97365 12.0808 -0.10124 -6.64998 0
42200 2 23.0479 14.5944 7.52211 -3.54769 0
2566 1 21.4795 11.878 20.0088 -6.63266 0
21296 2 27.6085 4.20118 4.1426 -3.52184 0
139 2 19.8745 9.03199 12.4534 -3.3429 0
1 1 2.62554 14.3702 13.455 -6.1634 0
9574 1 4.5458 28.8419 10.4425 -6.46106 0
35202 1 21.8294 11.8554 4.02417 -6.49434 0
31809 2 -0.39254 6.61421 7.83219 -3.39067 0
28025 1 21.9202 16.1957 -5.14825 -4.27929 0
6875 1 3.18859 -4.31115 0.302518 -6.40118 0
21647 1 19.174 18.3874 6.24205 -6.65044 0
3272 2 13.7743 11.9963 -4.16056 -3.01534 0
44627 1 2.62309 2.88474 8.63429 -6.29123 0
8282 2 1.46406 28.1598 -3.73742 -3.04492 0
49298 2 11.6739 19.8211 0.262511 -3.43368 0
14896 1 6.52686 -3.78904 3.8379 -6.43239 0
44542 1 7.1361 16.6894 12.2999 -6.74609 0
2859 1 17.0111 14.1689 19.2401 -6.54321 0
19560 2 -0.267908 10.8553 10.0343 -3.46341 0
62211 1 -3.77239 3.23941 -0.704357 -6.57535 0
62239 2 9.41215 6.39438 -3.14329 -3.35534 0
13532 2 6.77434 2.50629 -2.7874 -3.50964 0
8414 1 0.063321 1.40409 19.4646 -6.52419 0
7524 1 -1.09132 9.20656 -4.98417 -3.82625 0
43571 1 14.6628 0.636126 15.9942 -6.66468 0
29062 1 16.3619 7.88085 10.1983 -6.19653 0
235 2 10.6457 -3.12387 -0.511706 -3.55025 0
1755 1 6.48697 -4.71618 18.1864 -6.61265 0
14542 2 25.3707 26.78 3.10372 -3.47792 0
7558 1 11.6418 4.85133 5.3359 -6.55211 0
7542 1 1.09476 20.3088 3.92786 -6.62489 0
44653 2 23.7331 12.4463 6.48795 -3.5326 0
9019 1 6.30161 27.5473 12.436 -6.31731 0
13937 1 17.0909 13.5515 14.291 -6.50996 0
26880 2 17.8207 20.1063 4.24851 -3.5418 0
15124 1 24.103 2.82953 4.87945 -6.24305 0
43334 2 18.6388 -0.662585 -3.39996 -3.17239 0
43380 1 -0.331317 10.3509 -2.10881 -6.3638 0
29447 2 27.5623 21.2607 15.7602 -3.50315 0
24608 1 26.2119 9.16412 15.4333 -6.50798 0
22104 1 4.34768 17.1796 9.4436 -6.46377 0
791 2 10.6142 9.84588 6.82893 -3.52991 0
51188 1 2.7116 5.6872 7.10096 -6.64788 0
15484 1 17.7606 -2.59024 12.8298 -6.41866 0
7026 1 1.66808 16.5076 10.6065 -6.4743 0
7109 1 2.46041 5.57018 1.7954 -6.6577 0
7890 1 1.49514 18.8834 12.8882 -6.34906 0
43673 2 6.03385 28.9657 14.858 -3.40725 0
44257 2 2.27797 14.9816 2.66322 -3.53261 0
57864 1 2.64662 11.0181 -2.83899 -6.16489 0
10150 1 -4.53585 22.5967 14.5182 -6.34966 0
48880 1 -5.26058 11.287 19.7267 -6.2787 0
55205 2 2.77139 17.92 -4.20441 -3.17319 0
20308 2 19.8195 13.5532 4.65423 -3.48818 0
2134 2 3.95805 26.6628 2.59808 -3.53683 0
43410 2 5.16625 5.90794 2.39402 -3.36461 0
49495 2 12.5026 14.1 16.7776 -3.47981 0
7466 2 12.8255 -0.0803533 3.89519 -3.44931 0
9701 2 -3.43207 27.2875 20.1884 -3.42104 0
15635 1 20.2494 27.5966 0.433588 -6.65264 0
469 1 15.1548 6.92769 -3.40343 -5.61326 0
1172 1 24.3362 5.46772 17.0934 -6.45685 0
13609 1 10.5043 26.6912 -1.29134 -6.39437 0
1976 1 17.018 20.2514 14.4779 -6.62658 0
21612 1 4.12369 15.092 -5.10938 -4.11736 0
462 1 19.3412 22.9372 8.85914 -6.73541 0
22362 1 28.2137 26.2428 3.43367 -6.61253 0
42113 2 -3.27773 12.9642 19.0494 -3.51999 0
6202 1 24.0589 -3.50784 0.826152 -6.47083 0
62317 1 22.1473 4.26444 -0.751265 -6.21577 0
508 1 -1.21973 18.5918 5.17135 -6.49113 0
9108 1 4.65279 9.17449 12.551 -6.31369 0
57838 1 18.4567 11.1574 13.194 -6.50714 0
3742 2 -1.80998 0.212204 9.01261 -3.48959 0
1081 1 9.26186 18.7106 4.0815 -6.57616 0
2095 2 -0.939554 -3.52619 4.67548 -3.48252 0
2256 1 -1.81473 8.09014 16.9951 -6.6535 0
51672 2 -4.27204 26.1852 0.112806 -3.48918 0
6765 1 16.8525 19.1388 -3.00243 -6.3754 0
2578 1 -0.890652 22.5137 18.132 -6.60967 0
7989 1 28.9913 28.9612 2.92144 -6.41073 0
20821 2 10.7733 26.6232 7.68845 -3.4189 0
56298 2 17.4785 12.3723 5.39738 -3.46274 0
7096 1 16.2951 20.5645 1.97225 -6.54067 0
43749 2 1.15557 27.3248 0.581715 -3.36679 0
22361 2 27.2224 1.65687 8.73443 -3.47704 0
51049 1 -0.00762971 25.1679 4.55191 -6.44354 0
13978 2 2.72557 -3.07343 -2.22939 -3.48394 0
7859 1 21.68 14.6355 10.2036 -6.74859 0
1528 2 26.9235 9.32465 7.30724 -3.50558 0
468 2 3.54982 11.933 11.382 -3.4622 0
993 1 -2.13169 23.0656 -3.09936 -5.62164 0
36178 1 27.5054 0.889828 1.09095 -6.48831 0
57738 2 13.6349 12.7916 0.104403 -3.45616 0
44331 2 7.43202 0.622341 4.363 -3.44725 0
5806 2 13.8026 24.997 9.3614 -3.47614 0
521 1 7.79912 26.5649 14.7896 -6.5828 0
9694 1 -3.93766 26.3511 11.1477 -6.79638 0
1464 1 15.0547 2.82791 18.7284 -6.48281 0
21172 1 -0.37886 2.15477 7.43953 -6.47817 0
6642 2 10.3982 22.3157 -4.03019 -2.91646 0
28043 2 24.3196 18.6561 2.1314 -3.51773 0
52295 2 25.1652 -4.35431 3.69714 -3.51948 0
7137 2 14.9833 25.654 -1.35651 -3.42064 0
16705 2 -0.175624 11.7527 5.98198 -3.55467 0
15931 2 18.0598 16.0689 13.2726 -3.56793 0
34053 1 -1.59394 28.2374 -3.79719 -4.77662 0
29435 1 22.2514 8.63624 1.1198 -6.45936 0
389 1 22.4556 16.0074 16.7739 -6.5154 0
323 1 26.1042 6.77191 -3.21428 -5.71506 0
61845 2 12.1014 7.8461 8.36477 -3.34484 0
36597 2 21.7728 8.68649 14.0103 -3.50435 0
22697 1 25.8183 -4.96875 6.48695 -6.63804 0
14595 1 13.3 14.0723 4.95015 -6.5173 0
42601 1 24.6033 0.0557878 4.33967 -6.46858 0
47970 1 -4.75383 11.5583 8.80532 -6.29286 0
14286 2 16.174 27.6314 -1.37401 -3.44291 0
46314 2 -3.79678 18.7413 10.4086 -3.49727 0
28815 2 26.9201 21.7385 3.36752 -3.49319 0
13947 2 21.9006 -0.695577 18.5146 -3.44424 0
44428 2 1.90871 8.19428 13.202 -3.53143 0
43102 1 10.4034 8.5956 -4.37834 -4.27409 0
48264 2 -2.13613 23.058 5.14932 -3.42821 0
2794 1 18.8827 21.7323 12.0872 -6.5508 0
28501 2 25.517 16.2408 -2.37876 -3.48439 0
1369 1 26.1659 16.1322 13.3801 -6.53073 0
21692 2 27.1573 15.0599 -0.939756 -3.39653 0
1382 2 13.2865 9.91917 7.58463 -3.54283 0
6948 2 3.93019 -2.59966 2.17957 -3.42835 0
6007 2 16.6006 16.7585 6.65515 -3.39345 0
41583 1 19.6693 -4.43654 -2.37702 -6.63653 0
25980 1 13.4918 13.2183 9.97442 -6.27772 0
23484 2 11.6464 14.8037 8.65516 -3.46515 0
790 2 24.2936 0.887801 -2.98799 -3.40956 0
43135 2 -2.76479 -4.96621 12.9878 -3.46352 0
45157 2 -4.48514 8.70612 8.3911 -3.37485 0
45024 1 2.75473 16.5334 0.435074 -6.62601 0
9251 2 0.411016 1.40093 14.8034 -3.54358 0
15826 1 6.87149 13.1667 15.9969 -6.4662 0
7107 1 23.2238 12.5606 -1.67305 -6.49594 0
33067 2 17.8022 -5.10983 14.5344 -3.49094 0
2493 1 -0.959544 2.55618 1.33924 -6.43298 0
7161 1 3.89671 22.1674 -4.32653 -4.41647 0
13936 1 7.79972 12.8196 -3.59591 -5.2423 0
16788 1 26.9327 4.88589 14.6961 -6.5205 0
27691 2 28.9471 23.5455 3.00943 -3.49961 0
4804 1 6.48337 10.0323 0.820928 -6.60425 0
283 2 28.2101 -0.313303 7.13213 -3.46804 0
2069 1 24.7724 10.3033 0.30996 -6.36844 0
35433 1 20.2722 14.1642 -3.31104 -5.58944 0
7927 1 -1.44048 22.3101 13.913 -6.5219 0
9932 2 -3.15736 3.94569 -3.38222 -3.4055 0
36489 2 2.85486 -4.45369 15.4905 -3.40728 0
7383 2 0.139285 4.49861 6.62208 -3.47951 0
2730 2 -1.13636 15.4291 18.0659 -3.47274 0
9294 1 22.7086 26.2592 -1.51321 -6.44823 0
15167 1 -3.91752 10.8203 2.77406 -6.56304 0
37590 1 27.8475 -0.439073 4.29215 -6.58849 0
46016 2 21.1541 11.0769 13.7207 -3.50888 0
19888 2 21.0965 6.78887 -5.05371 -2.74517 0
22337 2 14.8309 28.8247 17.2654 -3.49834 0
2695 1 0.868743 7.79212 -3.10276 -5.83126 0
16009 1 7.57561 8.22904 10.7238 -6.53724 0
6362 2 12.2433 2.50351 -0.0626621 -3.37653 0
43092 1 13.063 11.3755 17.1945 -6.33734 0
1986 2 -1.68985 26.7486 12.5934 -3.51098 0
49196 2 18.793 19.9324 -4.7892 -2.98479 0
46865 2 12.5209 0.942001 8.9011 -3.47096 0
6807 1 18.701 14.087 -0.310115 -6.27955 0
37319 2 7.82827 28.8152 10.2699 -3.38716 0
44341 2 19.4983 18.6599 3.12671 -3.41661 0
45651 2 4.70479 2.19117 15.6582 -3.42581 0
7841 1 26.0297 -0.0616608 13.2007 -6.69409 0
5647 1 15.8424 10.1028 -4.81941 -3.95086 0
29653 1 -4.56926 5.99639 -4.91456 -4.05326 0
4315 1 16.753 16.0167 16.0857 -6.44815 0
6967 2 -3.28207 1.22549 1.21144 -3.5159 0
42474 1 11.8594 16.3814 3.77758 -6.36628 0
43442 2 21.2086 22.1025 13.8667 -3.39115 0
19055 2 14.2948 -4.57281 5.96209 -3.50849 0
1877 1 23.5395 25.2474 17.1872 -6.56041 0
2160 1 22.4859 9.86319 6.38788 -6.4542 0
2023 1 13.0242 4.85693 0.822111 -6.29846 0
21877 2 21.7966 11.4314 1.03254 -3.39755 0
204 1 25.4639 5.35402 -0.737435 -6.47519 0
29726 1 17.586 25.7781 -0.149373 -6.45863 0
8181 1 1.50325 14.0678 6.59217 -6.50346 0
7278 2 8.79312 24.5746 4.43481 -3.56521 0
43129 1 7.35827 5.17588 -1.7421 -6.4211 0
2363 1 10.914 2.77785 15.8014 -6.5308 0
138 2 16.6496 -4.34609 6.80056 -3.53558 0
5922 1 22.6276 19.2651 7.13093 -6.23821 0
1202 2 19.1321 -3.23657 10.7827 -3.44606 0