ITEM: TIMESTEP
88000
ITEM: NUMBER OF ATOMS
62500
ITEM: BOX BOUNDS pp pp pp
-5.3745846689637631e+00 9.7874584668942006e+01
-5.3745846689637631e+00 9.7874584668942006e+01
-5.3745846689637631e+00 1.8787458466894199e+02
ITEM: ATOMS id type x y z c_pe_atom c_ke_atom
57952 2 11.4297 -3.94347 -2.89871 -3.42834 0
21686 2 25.2439 18.8234 7.89069 -3.56866 1.69926e-07
748 1 14.7739 20.6231 4.863 -6.74978 1.8948e-07
1582 1 3.83532 19.717 14.9158 -6.66676 3.58424e-07
9337 1 13.738 20.253 12.9312 -6.73981 2.94343e-07
44418 1 8.29537 -4.93982 15.4845 -6.60055 5.5632e-07
42242 2 15.1632 8.28635 -1.09787 -3.51393 0
955 1 20.078 5.0173 -2.88058 -6.37433 0
7339 2 28.199 6.26114 -1.3816 -3.49839 0
12519 2 -0.0910999 11.9724 0.445581 -3.52821 0
8980 2 24.5319 21.2671 7.6686 -3.51222 3.01034e-07
55618 2 -5.33452 6.30734 27.4022 -3.53368 4.52925e-07
6480 2 10.6176 10.3342 -1.8349 -3.50293 0
7892 1 15.5868 14.4458 -1.61306 -6.51318 0
7574 2 16.6122 28.1763 3.75852 -3.48172 0
17282 1 27.2719 10.5141 19.943 -6.41937 6.47528e-07
20093 2 1.46591 1.21702 -0.0482386 -3.4688 0
31375 1 23.8684 22.1001 17.3724 -6.68355 6.61399e-07
5722 1 5.41798 23.9258 -0.612937 -6.39727 0
28857 2 9.70113 15.1273 5.28718 -3.40387 9.53135e-08
4 1 -3.84785 1.99824 8.31626 -6.66475 3.65631e-07
11419 2 22.0509 21.9965 8.51809 -3.51345 1.10569e-07
8724 2 -5.09342 3.05769 -4.93371 -2.86483 0
43105 1 4.57438 1.58593 4.38899 -6.56016 0
5516 1 22.2423 17.5228 11.4146 -6.30749 3.47195e-07
6438 1 11.1315 24.2534 2.9687 -6.45267 0
58369 2 -0.635328 20.7092 12.0609 -3.49482 2.93531e-07
48510 2 4.47781 7.8384 1.21959 -3.40867 0
9010 1 18.0458 2.48366 1.42504 -6.49926 0
22360 1 2.20655 9.35438 10.6297 -6.49866 1.50181e-07
44144 1 11.2568 21.9232 8.9858 -6.47047 7.2354e-09
7055 1 16.8063 -4.37129 10.216 -6.63695 9.02628e-07
1604 1 1.00296 11.8035 16.3504 -6.46829 2.07389e-07
14684 1 23.62 -4.72791 15.8039 -6.44582 2.25352e-07
30772 2 26.0295 3.42232 10.2922 -3.484 3.75758e-07
50961 1 23.2112 28.935 -0.046695 -6.58229 0
14744 2 19.8517 9.96114 2.41659 -3.3493 0
17422 2 4.03927 -5.07899 12.9988 -3.59817 1.46326e-07
18883 1 28.2039 3.70046 0.185049 -6.38762 0
7519 1 -0.527793 3.13692 4.13345 -6.49933 0
1418 1 3.38962 6.37481 17.4207 -6.49391 2.27985e-07
7169 1 23.5282 -2.20954 6.89048 -6.46775 3.43129e-07
22577 1 16.2343 1.41884 -3.42378 -5.72852 0
3381 1 7.96225 -4.92929 6.84679 -6.54041 1.79339e-07
7054 2 27.4843 28.6145 17.8935 -3.55498 6.27094e-07
35890 1 23.6846 4.19527 1.8536 -6.69278 0
1032 1 22.3058 19.8612 -1.73928 -6.6622 0
16984 2 17.7368 -3.10509 15.7202 -3.41801 2.86493e-07
32129 2 7.52647 21.0772 17.5915 -3.41406 9.34443e-08
15382 1 -3.46079 -4.85738 5.40091 -6.55187 5.91747e-09
43377 1 2.80618 0.433632 -4.53497 -4.38666 0
31390 1 8.02765 17.7654 17.2838 -6.64368 1.74958e-07
43457 1 -5.209 16.4435 2.98464 -6.3914 0
34871 1 18.0426 28.7247 -3.68476 -5.75442 0
15108 2 9.97408 3.33196 13.2137 -3.54553 5.27312e-07
2103 1 17.1436 9.66509 3.29466 -6.64605 0
36718 2 10.2573 -0.37249 7.47553 -3.51432 7.88794e-08
3082 1 9.89615 13.1177 9.60621 -6.31934 3.09711e-07
15490 1 20.9962 0.111317 14.3809 -6.50967 3.46056e-07
62076 2 12.7297 -2.03483 -1.6174 -3.46822 0
15444 2 24.3941 3.18109 -1.86198 -3.52705 0
10213 2 -4.45609 10.8252 13.8898 -3.50799 2.01008e-07
48478 1 4.57107 15.0304 6.68028 -6.66166 5.73467e-08
538 1 9.37729 -3.66787 -5.18007 -3.93926 0
52144 2 -0.70859 25.5239 -3.27864 -3.13397 0
1417 2 24.3216 24.448 -0.23941 -3.34942 0
29852 1 23.5789 25.4617 11.8843 -6.36454 5.66074e-07
34336 1 -1.83592 13.17 4.02255 -6.5089 0
15641 2 -0.342283 -0.0851186 16.659 -3.48167 9.6224e-08
36191 1 11.0235 -2.27574 12.0277 -6.57394 3.93611e-07
14900 1 3.31568 15.9716 18.1662 -6.71743 1.52806e-07
14601 1 9.13432 8.19649 15.9644 -6.53464 5.28756e-07
57625 1 21.0633 -0.354365 7.71859 -6.56366 6.25311e-08
998 2 -2.71605 10.6525 19.0137 -3.4514 3.27871e-07
48239 2 14.9102 10.3515 1.55548 -3.41916 0
28527 1 7.35473 3.59206 8.15025 -6.6283 1.80368e-07
14265 2 19.0631 -0.760808 6.03754 -3.49864 6.41009e-07
23631 2 27.2774 4.31284 -2.83655 -3.39169 0
24567 2 15.5027 7.7019 4.47662 -3.43145 0
57303 1 -4.37852 1.95247 11.4621 -6.64844 6.50685e-07
46133 2 4.33946 22.0807 13.1412 -3.55925 2.40152e-07
21898 1 15.7631 26.5089 28.5878 -6.47752 6.20493e-07
15523 2 6.24533 24.8275 6.87096 -3.42803 4.81889e-08
398 1 18.0917 12.0684 8.20473 -6.50233 4.64389e-07
1336 1 6.14278 5.05687 10.9785 -6.40226 1.50366e-08
50864 2 7.90548 6.78457 19.7743 -3.42841 5.01671e-07
57958 2 -0.180267 -3.62693 8.32302 -3.50408 1.31654e-07
8419 2 18.2866 13.6041 16.6748 -3.5877 4.55921e-08
921 1 14.5033 -2.51861 11.4328 -6.67549 7.6029e-07
9890 1 14.9726 24.8257 14.971 -6.73169 1.29954e-07
22583 1 10.8005 12.1275 -4.2086 -4.474 0
7050 1 17.2135 25.5559 -3.06644 -6.21474 0
43482 1 4.85037 16.1846 3.30358 -6.42988 0
43264 1 -3.58052 15.2606 0.402155 -6.53881 0
44008 1 1.38624 -4.13841 13.2502 -6.39716 1.48242e-07
3490 1 19.0516 5.87149 18.822 -6.454 1.01966e-06
45475 1 5.94714 19.7013 8.27346 -6.59164 2.79446e-07
50934 1 -0.857573 26.1309 9.91653 -6.54143 6.31124e-07
21332 2 15.6061 1.47667 2.93705 -3.51948 0
15623 2 20.4164 0.0819141 -1.30357 -3.40028 0
840 1 9.46393 19.4032 8.88422 -6.4768 7.93853e-08
28616 2 27.0021 20.3802 -0.683217 -3.45818 0
1583 2 8.20433 18.4401 6.65044 -3.53642 2.68095e-07
15509 1 19.8424 9.52369 -0.80729 -6.50569 0
434 1 9.10341 2.66398 -0.885208 -6.3283 0
14682 2 6.64362 2.1108 2.72665 -3.36966 0
21615 1 23.7319 13.3367 1.80718 -6.53936 0
16019 1 10.3061 5.27713 -0.651325 -6.65314 0
29656 1 -2.36102 10.1042 0.128968 -6.55603 0
49429 1 17.0886 27.1495 11.3714 -6.17565 7.13392e-07
55621 1 12.6502 6.14775 19.8141 -6.55081 5.09564e-07
317 1 15.3799 4.49702 7.47523 -6.47208 1.97523e-07
15239 1 -2.28637 -4.01575 10.2983 -6.57511 2.37583e-07
10009 2 7.81983 23.9479 14.3905 -3.58358 2.61565e-07
42645 2 -1.4199 5.33366 17.5553 -3.52306 1.78953e-07
45132 2 0.347143 0.501682 5.1804 -3.43822 6.71921e-08
17157 1 7.2857 16.2812 5.04583 -6.55107 1.43454e-07
1734 2 -0.281685 5.38372 1.93932 -3.3923 0
58172 2 10.5651 7.11491 6.63495 -3.53 7.0266e-08
587 1 2.27457 19.585 0.943568 -6.78952 0
8246 2 5.79578 22.4837 7.39511 -3.55105 2.62212e-07
7614 1 12.7282 24.5795 -0.167763 -6.53744 0
87 2 19.6131 -4.59432 15.9512 -3.46477 1.00756e-06
56316 1 16.5678 22.3797 -4.17873 -5.06892 0
7863 1 -3.4308 19.8868 15.2511 -6.58916 8.89253e-07
49502 2 4.25712 11.3121 -0.498451 -3.48469 0
36456 2 -4.38298 16.9172 19.8861 -3.49761 4.21283e-07
191 1 -0.456828 12.612 19.2325 -6.69141 5.37468e-07
309 1 13.7629 9.16775 14.2552 -6.75343 4.22193e-07
22937 1 14.0023 17.4854 5.64915 -6.78594 2.29313e-07
470 2 7.49685 6.26991 8.90523 -3.47517 1.57355e-07
7089 1 5.22968 10.4346 9.74292 -6.43383 2.26513e-07
17814 2 16.5325 19.1643 6.391 -3.50404 1.20612e-07
13140 2 18.7204 17.6637 14.89 -3.47589 6.88668e-07
50790 2 -0.379001 20.8641 15.79 -3.43306 4.09878e-07
12706 2 19.7711 5.74283 9.69128 -3.54853 1.2975e-07
1410 1 -3.47598 0.282062 17.149 -6.74002 4.00996e-08
41690 1 21.5803 2.97221 15.0135 -6.50084 1.50015e-07
7582 1 9.88177 20.1239 16.6054 -6.55606 1.85456e-07
50762 1 0.373217 25.1189 13.2012 -6.51853 9.45242e-07
8654 2 10.8308 18.066 6.40637 -3.46279 5.40017e-08
43372 2 8.93847 -3.40511 13.4131 -3.47175 3.73061e-07
22879 1 3.37494 7.42585 4.26419 -6.91145 0
48070 2 -4.48549 6.32044 13.6471 -3.52102 3.84446e-07
22314 2 8.49752 -1.12949 13.7575 -3.41891 2.61165e-07
1899 2 16.976 -3.7094 1.78695 -3.40714 0
15460 1 8.38267 0.625306 1.62028 -6.58918 0
43923 1 8.47462 -4.59756 11.0632 -6.39941 2.33617e-07
49873 2 11.3458 -5.08775 15.5515 -3.4727 3.95942e-08
42924 1 4.22915 20.9095 3.61364 -6.54936 0
8172 1 11.6896 10.6889 9.48752 -6.64537 3.4013e-07
50274 1 1.06454 16.025 -5.22694 -3.66225 0
21319 2 14.4642 14.7269 -4.20767 -3.01296 0
21901 1 15.0548 2.86813 0.399942 -6.41292 0
36996 1 12.8829 9.5505 -0.044057 -6.68753 0
35417 2 1.42412 17.8975 5.11401 -3.44198 4.69033e-08
51094 2 18.3275 0.503978 8.23607 -3.48053 6.05877e-07
15141 1 5.156 -4.53215 -2.1071 -6.39337 0
42344 2 4.80758 3.52414 1.93448 -3.49148 0
27745 1 14.1957 3.88688 15.6652 -6.81403 1.4425e-06
44006 1 3.67439 -2.3617 13.5405 -6.07782 5.01535e-07
5101 1 14.5926 19.4612 -0.462892 -6.6574 0
2280 2 9.87842 10.195 20.1648 -3.48102 7.05591e-07
1277 1 14.7436 7.52057 1.56986 -6.82407 0
36112 2 27.2716 4.63367 12.0581 -3.52979 1.34626e-08
7120 1 7.83916 2.02479 14.4939 -6.544 5.3928e-07
8401 1 7.59201 24.5091 17.4603 -6.7429 5.95772e-07
6954 2 20.0518 4.76919 13.5614 -3.54879 5.90281e-07
1449 2 2.31413 22.2994 2.01787 -3.54565 0
744 1 10.1725 -0.535418 4.69909 -6.55527 3.47395e-08
55321 1 1.38477 -0.630838 -2.10289 -6.48884 0
8447 1 22.6384 14.7646 4.761 -6.63274 5.36392e-08
2819 1 23.256 8.64461 16.341 -6.65814 1.04691e-07
14977 1 8.67474 -4.33317 1.17887 -6.47528 0
15185 2 28.2005 2.48612 13.2583 -3.50132 2.33894e-08
10373 2 0.454129 19.7668 17.9048 -3.45164 6.01983e-07
7025 2 -2.46022 24.3445 3.21067 -3.53693 0
6165 1 -0.964619 -0.382143 0.0144722 -6.57868 0
34594 2 19.6121 -4.65149 8.38656 -3.49116 4.33537e-07
8213 2 -4.39589 23.4008 4.356 -3.49397 0
12804 1 8.29238 24.0544 -1.49818 -6.64533 0
35501 2 15.8157 23.0781 5.45785 -3.51444 4.10836e-08
36913 1 28.3807 24.0387 17.4155 -6.3363 2.27886e-07
20611 1 24.7322 -4.02106 -2.78149 -6.21354 0
1340 2 0.3866 7.14349 11.0436 -3.5219 2.51681e-07
42664 2 -2.68822 25.4402 -1.7794 -3.52207 0
7847 1 22.1681 18.4819 4.468 -6.4608 0
52746 2 -0.240007 7.31176 14.4153 -3.52178 2.0772e-07
43873 2 3.09068 1.31311 11.208 -3.5552 5.1474e-07
22357 1 25.826 25.904 5.58715 -6.51064 9.3784e-08
7844 2 22.1092 26.0452 1.89188 -3.28084 0
1570 1 27.5686 15.5175 10.4397 -6.74847 7.20663e-07
2393 1 8.34763 10.7156 8.53378 -6.4519 3.28943e-07
22396 1 25.4858 0.966391 18.0343 -6.48383 4.67359e-07
2688 2 -4.94642 23.7019 -3.51809 -3.1423 0
44026 2 -4.28221 7.84043 -3.16035 -3.18991 0
58077 2 12.8685 1.43527 17.442 -3.51017 1.85592e-07
17815 2 -0.0546902 15.0449 8.55234 -3.49487 2.1893e-07
1836 2 23.8078 2.6175 10.9621 -3.42868 7.45835e-07
4085 1 -4.21742 20.2141 -0.433084 -6.62267 0
9560 1 22.5173 21.9546 5.43063 -6.6715 1.22895e-08
48311 2 19.0674 7.11365 16.4752 -3.40828 2.47722e-07
9898 1 15.3403 12.2318 3.92089 -6.40741 0
1079 1 -1.73612 2.62718 13.4518 -6.36726 2.56807e-07
25800 2 15.9055 15.0797 12.1873 -3.52585 6.41902e-07
43584 2 18.0136 -1.11466 19.5257 -3.55406 2.11201e-07
44652 2 9.85461 16.8667 13.2811 -3.5817 5.3836e-07
2767 1 1.56551 20.4185 -3.72337 -5.02576 0
21093 2 16.855 9.20192 -2.59184 -3.50517 0
44475 2 -3.61057 -3.76816 -3.94362 -2.96567 0
903 2 8.45656 18.4162 14.575 -3.55912 4.22646e-08
3328 1 -3.78568 15.7191 17.5861 -6.70072 1.88342e-07
21237 1 19.8195 -4.67482 2.90425 -6.61373 0
10425 2 15.1938 -2.61732 5.58541 -3.44363 2.66371e-07
81 1 3.13753 8.33425 -0.931944 -6.33215 0
8821 1 -4.18841 23.2694 -0.763599 -6.55628 0
19477 2 25.4417 28.9425 9.09825 -3.45157 2.82684e-08
23650 2 28.335 7.32112 15.0343 -3.55498 1.04714e-07
36928 1 14.3169 -4.67067 16.2708 -6.74196 3.02152e-07
875 2 11.1345 0.981074 2.20638 -3.49892 0
50037 2 -3.62781 17.9375 1.09086 -3.49752 0
391 2 -1.45409 21.0457 4.09844 -3.50193 0
16374 2 5.87291 25.1586 19.9141 -3.50717 8.64603e-08
43586 1 8.4731 8.14944 -1.07049 -6.52969 0
8146 1 2.51538 13.0653 0.929678 -6.34169 0
10074 1 23.264 19.0237 18.2476 -6.5741 1.90419e-07
55572 2 24.2578 -1.42915 -4.43279 -3.04588 0
37025 2 -3.96977 13.4759 15.7671 -3.47338 6.89783e-08
36370 2 21.3297 16.8438 -2.62996 -3.48456 0
3085 2 16.2189 12.816 -4.10185 -2.98459 0
6434 2 17.1666 28.4671 18.9726 -3.56478 1.10217e-07
1627 1 0.869013 13.1396 -1.68787 -6.40329 0
25051 2 25.4774 -4.57076 17.7786 -3.54898 6.35467e-09
20063 2 -4.74217 1.82892 5.58094 -3.54294 1.67654e-07
30877 1 21.6028 27.3738 15.5208 -6.36194 4.77792e-07
2195 1 -1.62654 -5.12101 -2.57234 -6.29678 0
38130 2 18.7791 3.54469 17.3694 -3.43104 4.6006e-07
7244 1 -4.99535 0.0872883 3.20742 -6.79497 0
2677 1 1.77819 8.68958 16.3302 -6.74964 2.19153e-07
43137 2 5.60308 8.83216 5.51049 -3.50115 4.09923e-08
8397 2 14.3674 18.1155 11.1166 -3.47891 1.00085e-07
6748 1 22.0283 4.20161 9.61199 -6.67463 1.68491e-07
22652 2 26.914 24.5521 -1.28479 -3.39088 0
20250 2 25.0053 10.1136 -2.5707 -3.41356 0
1816 1 10.2898 7.75834 18.822 -6.59956 1.27551e-06
1924 2 27.5673 22.9934 10.5039 -3.53593 6.42304e-07
452 1 17.2238 0.950613 17.9223 -6.41359 4.46761e-07
50626 2 27.3024 28.3804 10.4569 -3.53417 1.04217e-07
57366 1 3.2274 -1.46189 16.2689 -6.37144 8.56836e-07
413 1 -3.51991 21.8876 2.1146 -6.71469 0
13344 1 14.0507 17.1766 -3.03566 -5.89296 0
28902 1 24.9777 19.6541 4.95269 -6.73948 3.231e-08
14163 1 8.35867 15.5334 15.0564 -6.73298 1.42845e-07
34077 1 23.4582 17.3787 -0.537019 -6.71444 0
50288 1 3.3445 26.4015 -0.285871 -6.53093 0
766 1 24.3478 -2.34699 10.8623 -6.44758 4.45131e-07
5686 2 10.3292 1.11273 -2.71015 -3.4599 0
58615 1 -1.49642 2.77225 10.5004 -6.72212 9.88519e-07
50986 1 -3.39978 20.4337 12.3086 -6.75335 5.08299e-07
15240 1 2.54504 3.25023 13.5107 -6.62565 1.56245e-07
48357 2 4.13847 21.9006 9.07908 -3.54323 1.45312e-07
5365 2 9.92349 14.9567 -3.57035 -3.35698 0
42796 1 -1.73484 8.28983 2.72282 -6.46467 0
53734 2 27.9939 6.30883 0.990734 -3.49849 0
22733 2 24.1513 26.5794 0.855186 -3.46024 0
48561 1 19.2882 28.0082 5.54107 -6.58378 1.37118e-07
40841 2 20.5613 20.6723 10.1101 -3.51926 1.58458e-07
44825 2 -4.3431 21.2199 -3.06092 -3.30261 0
43938 2 4.7588 4.59792 8.73296 -3.51912 2.03185e-07
7151 1 -3.4641 16.0102 11.9528 -6.48229 3.99422e-07
42186 2 9.89105 24.9378 15.3541 -3.4953 2.57575e-07
337 1 22.8288 -0.702551 1.82069 -6.20736 0
15714 2 28.1342 -1.813 13.9172 -3.50297 1.73544e-07
28245 2 7.63099 0.392455 12.1871 -3.47312 1.37761e-07
1440 1 -1.32272 -2.82189 1.86004 -6.57823 0
6038 1 -1.74476 -0.0143694 2.96965 -6.15867 0
16108 2 20.3884 -1.86353 3.17329 -3.55459 0
8700 2 -1.97325 24.6209 11.8192 -3.47751 4.70727e-07
420 1 23.8036 24.5979 3.0907 -6.51861 0
230 1 24.0281 21.3529 2.6637 -6.3427 0
33634 2 22.3048 -4.08876 -1.40318 -3.53909 0
15035 1 5.06574 12.2279 13.4355 -6.53635 2.15143e-08
5622 1 6.22611 26.9008 -1.50158 -6.38093 0
7813 1 8.03039 12.0302 18.6857 -6.6787 5.73563e-07
15547 1 15.5109 -1.43115 3.28243 -6.52866 0
48669 2 2.23664 23.2186 4.29106 -3.47673 0
30429 1 5.38034 24.7498 12.882 -6.45173 3.22756e-07
27206 1 26.7892 7.49353 12.6766 -6.58934 1.34661e-07
36013 2 15.9988 17.2515 -1.1847 -3.47903 0
952 1 2.68614 0.440519 7.012 -6.74061 7.79481e-07
42436 1 25.87 -1.61126 2.19563 -6.52191 0
38949 1 28.7811 -3.41072 11.4769 -6.36713 1.28888e-07
10026 2 -2.61883 16.6227 6.47078 -3.53765 8.10517e-08
61796 2 8.12804 -1.81831 11.244 -3.58759 9.15941e-08
16490 2 16.3477 15.3869 0.796031 -3.47805 0
7538 1 12.5082 17.0162 12.5472 -6.5522 3.50567e-07
37396 1 -5.07223 26.7889 8.11441 -6.53895 9.32688e-07
7152 1 -3.75409 3.76577 17.8485 -6.47013 3.08404e-07
2714 1 -3.1042 16.1592 9.09057 -6.40349 3.51117e-07
62414 1 3.45597 -4.96978 -4.65451 -4.9516 0
7860 1 9.25127 20.9858 -1.75618 -6.31887 0
211 2 12.4939 11.8693 -1.87895 -3.50273 0
8366 1 6.08457 27.1262 17.2766 -6.77689 5.66774e-08
24499 1 27.0494 5.91531 19.5877 -6.80238 3.62244e-07
10293 2 16.8436 16.8976 18.6791 -3.44854 3.39141e-09
28782 1 26.058 11.8087 8.3377 -6.47614 2.64571e-07
52737 1 -3.15021 -2.06601 4.45047 -6.0027 0
45536 2 19.7048 13.8659 19.5973 -3.49652 1.4603e-06
43 1 3.56321 10.3551 2.11208 -6.53824 0
23425 2 4.80784 23.4518 5.28852 -3.43683 1.52073e-08
12242 2 2.41106 28.8438 -1.49612 -3.54431 0
24645 1 23.3363 23.1424 14.3533 -6.36863 2.21941e-07
35142 2 8.16901 11.4893 6.0085 -3.52218 2.21316e-07
2643 1 24.0338 10.635 13.8548 -6.46724 1.30583e-07
7085 2 2.68716 7.10292 -5.10503 -2.5202 0
58019 2 -0.756565 -2.76198 12.1199 -3.53297 5.20319e-08
10490 1 0.184237 -1.28161 14.2235 -6.50592 1.29753e-08
49988 2 11.1515 20.0246 2.59693 -3.52469 0
44244 1 13.7884 5.76027 9.95619 -6.6354 6.46735e-07
946 1 23.2165 27.4776 5.20451 -6.47013 2.32061e-07
35841 1 15.6224 6.70611 12.656 -6.43763 2.50652e-07
8893 2 17.5689 11.0907 16.0034 -3.48718 1.97343e-07
21836 2 10.0471 23.7555 13.2233 -3.55413 2.02226e-07
20516 2 14.2213 15.8132 10.4304 -3.53816 8.0174e-08
43841 1 9.55082 -4.2457 4.07018 -6.36964 0
7686 2 3.96757 18.5598 19.5259 -3.49699 1.88083e-07
1569 1 16.4995 -4.44312 -1.12116 -6.38213 0
11225 2 8.59927 -0.119129 19.0507 -3.49993 3.92769e-07
2019 1 4.49781 14.6018 11.2705 -6.45519 4.56699e-08
45394 1 -2.98766 8.56053 14.1828 -6.60892 6.69738e-07
1125 2 24.4983 7.77339 10.5604 -3.49384 3.69168e-07
297 1 10.6466 -2.33406 15.255 -6.67797 4.20422e-07
2838 1 -0.1124 23.1563 10.8527 -6.32267 2.03737e-07
44352 1 17.5132 3.58636 -1.35655 -6.48906 0
7657 1 27.1768 23.447 -4.06881 -5.2465 0
4097 2 24.8181 19.9822 0.179302 -3.46422 0
23498 2 6.7044 20.9414 10.525 -3.4501 1.45333e-07
58156 1 -5.05859 -3.85524 11.2948 -6.54703 5.31762e-07
720 1 0.0760156 24.8036 -0.354706 -6.60188 0
24959 2 5.38218 -3.2445 15.7577 -3.56504 8.95622e-07
54187 2 4.4301 25.941 10.5311 -3.60771 8.57025e-08
55051 1 6.08535 21.3729 -2.23041 -6.45636 0
16887 1 23.9251 -2.23809 13.9899 -6.59182 2.93092e-07
14195 1 4.44528 3.42014 18.1493 -6.55648 3.26836e-07
17081 2 12.2989 -4.66394 -5.17912 -2.6608 0
51103 1 20.4843 27.6676 -2.51144 -6.21884 0
15103 1 12.3168 -4.01927 7.70048 -6.39181 1.93533e-07
57928 2 -2.14215 -2.12541 16.0445 -3.55272 4.87431e-08
1229 2 6.1032 -0.377119 0.389452 -3.54172 0
20383 1 22.8577 -2.78563 3.73827 -6.28852 0
31100 2 5.30661 6.56082 19.6123 -3.34505 7.27247e-07
7829 2 25.7253 20.9421 -4.79866 -2.80831 0
22611 1 23.3226 5.64797 -3.04914 -6.09301 0
6283 2 12.0224 15.3478 -4.90046 -2.59818 0
29854 2 26.626 9.61282 4.3318 -3.49321 0
35602 2 13.3338 23.1432 13.0176 -3.56985 2.32456e-07
7520 1 -0.972789 23.7618 7.60977 -6.76096 1.39994e-07
47824 1 7.33552 15.3968 -5.0966 -4.20398 0
49254 2 24.4246 25.9123 19.7382 -3.42963 5.78795e-07
20737 2 -1.93697 18.6602 -0.931895 -3.48883 0
15968 2 14.0536 3.41196 5.35218 -3.52501 2.5118e-07
1717 1 25.8219 27.2543 -1.05309 -6.63212 0
35715 2 26.7336 11.633 -4.04632 -3.20028 0
43967 1 -1.31846 5.30954 -0.931416 -6.43312 0
31884 1 3.04278 16.8031 15.3343 -6.68046 1.38397e-07
10020 2 -2.68733 23.3214 9.69818 -3.45491 2.73456e-07
42392 1 1.16327 -2.58359 6.14314 -6.61319 6.52873e-08
44304 2 22.5554 9.81655 -1.37008 -3.51716 0
57152 1 5.90019 22.2662 15.3786 -6.68217 3.21686e-07
3440 1 21.6002 3.99884 18.3056 -6.68938 1.26699e-06
50464 2 10.9695 23.2218 -1.9054 -3.38961 0
36920 2 27.287 6.89952 6.46088 -3.50048 2.08833e-08
6860 2 4.71071 3.65018 -1.98449 -3.45133 0
7155 1 10.0376 16.9463 10.6192 -6.18661 1.83324e-07
728 1 15.7912 11.2197 18.8896 -6.55676 1.31237e-06
51248 1 3.04777 24.225 14.73 -6.69391 6.30996e-07
20581 1 0.62207 -3.08708 16.6203 -6.58198 1.54248e-07
20149 2 5.95007 -1.80503 -1.68408 -3.50992 0
611 1 18.0749 0.278803 3.7476 -6.5314 0
20653 1 19.5331 -2.72671 -5.06175 -3.84349 0
8450 2 12.5133 -1.75465 9.53869 -3.51233 2.11268e-07
15020 1 11.48 -4.60656 1.88531 -6.14645 0
24098 1 21.9516 27.8827 10.4625 -6.62909 1.49803e-07
20096 2 0.74228 0.701952 2.43953 -3.43205 0
36787 2 21.0952 22.8212 16.1584 -3.36155 1.44562e-07
7143 1 1.071 12.488 3.39108 -6.51911 0
8391 1 17.416 8.63431 17.8963 -6.65827 1.79681e-07
43440 1 18.4692 6.51456 12.0338 -6.46708 4.09492e-07
22682 2 3.17027 18.297 3.27085 -3.50988 0
48623 2 0.0156765 1.05205 -4.06469 -3.08099 0
58138 2 13.5532 14.3406 12.4339 -3.54236 2.88785e-07
23839 1 14.1127 22.5024 10.3054 -6.46339 4.32472e-08
47182 1 -3.26456 -2.18679 13.2763 -6.56928 2.66827e-07
122 1 24.1807 9.93607 3.30222 -6.61942 0
19772 1 4.94531 -2.00066 -4.17166 -5.40717 0
27679 1 24.891 7.89183 5.67963 -6.56639 3.7624e-08
6093 1 -4.82837 0.417131 14.2142 -6.36029 2.42432e-07
7826 1 12.3849 27.1806 18.4053 -6.62576 4.86619e-07
50186 2 4.12382 -5.25121 3.29713 -3.47547 0
1241 2 17.3466 28.1494 1.31847 -3.46852 0
43106 2 28.3899 0.41848 14.8154 -3.53679 2.98894e-08
23898 1 21.581 2.6996 6.72326 -6.72247 2.43872e-07
32142 2 23.8912 16.9507 6.27063 -3.50856 4.23681e-08
384 2 6.94922 19.2882 -0.10408 -3.525 0
26776 2 13.1656 -4.14162 20.1124 -3.49929 1.64606e-07
42658 2 24.9079 13.5262 -3.5104 -3.38661 0
3274 2 27.7207 27.2691 0.978358 -3.40074 0
21731 1 16.0977 23.486 17.8435 -6.36289 1.89428e-07
50419 1 -3.32705 18.7392 -3.54829 -5.12071 0
43921 1 7.66202 -2.60084 20.0912 -6.21741 5.32654e-07
21207 2 8.37221 25.9271 6.38087 -3.49495 6.72863e-08
10679 2 25.1806 21.1075 14.776 -3.56802 1.79012e-07
1660 1 15.948 6.01642 19.9649 -6.60329 8.59941e-07
6586 1 18.2029 -1.7307 -0.872384 -6.59918 0
23235 2 -3.86913 23.2982 11.8642 -3.40376 5.96748e-07
56804 1 -3.08966 15.5457 -3.71801 -5.32513 0
29010 2 22.1067 24.1348 0.386007 -3.43294 0
15428 2 14.8975 21.3746 -2.35271 -3.49245 0
14257 2 3.20428 19.5547 8.37802 -3.55978 2.82853e-07
23149 2 20.7357 17.8114 -0.341032 -3.54847 0
46770 2 -5.08965 16.7891 7.27934 -3.4768 5.7791e-08
9993 1 14.4744 19.9508 -4.49673 -3.92968 0
5163 1 0.884744 9.56825 4.39264 -6.67701 0
50112 2 15.7305 -4.39945 13.2274 -3.40974 3.04891e-07
19217 2 28.083 13.0455 16.3234 -3.52349 1.13501e-07
1366 1 27.3152 2.16471 5.86582 -6.66412 4.58911e-08
1452 1 24.44 5.23543 12.1095 -6.94624 9.47103e-08
37454 2 0.408583 4.82876 -3.15812 -3.34225 0
48914 1 9.9172 20.7654 6.36641 -6.40815 3.27199e-08
14846 1 27.3806 9.01845 10.0058 -6.60032 5.06969e-07
31840 1 -0.0564677 -3.04783 -0.912615 -6.23703 0
3906 2 25.9352 13.3886 11.2795 -3.43408 4.21427e-07
51125 2 26.4238 -0.797329 15.7673 -3.51328 1.11766e-07
14676 2 12.9359 22.5389 -3.41582 -2.97612 0
214 1 6.8854 6.5501 4.09737 -6.5072 0
14622 1 5.67525 6.24391 6.74171 -6.55872 1.9487e-07
21933 1 19.5365 -1.11792 17.1807 -6.76953 4.87372e-07
21783 2 24.3814 15.4672 11.1301 -3.49145 4.33411e-07
28114 1 13.8013 18.655 2.60081 -6.54778 0
20665 1 5.90424 -0.507311 14.5901 -6.72994 9.79418e-07
1842 2 -1.49961 14.1174 12.4572 -3.44383 2.97588e-07
18039 1 1.34193 4.12756 18.1762 -6.53143 2.4065e-07
250 2 0.69646 10.0258 1.60756 -3.34903 0
23576 2 20.8552 18.2854 16.9168 -3.52419 2.25081e-07
20699 1 20.7392 -3.03925 5.97318 -6.53686 4.4736e-07
30851 2 5.13381 18.0742 17.2268 -3.53982 3.78578e-07
20920 1 18.034 7.33813 -4.5602 -4.53996 0
36124 2 19.0756 20.9171 2.36639 -3.50288 0
105 1 2.62681 11.7507 8.65217 -6.36106 1.35685e-07
51503 1 -4.11622 7.30506 10.9485 -6.62485 4.36048e-07
8290 1 5.04205 28.7377 4.22089 -6.52859 0
29657 1 19.8962 -4.87092 12.7524 -6.51666 2.41371e-07
43127 2 25.3632 17.7302 10.4874 -3.44276 1.33419e-07
23711 1 6.44332 9.73372 14.89 -6.667 2.48796e-07
970 2 -4.80106 -2.08917 15.6011 -3.56169 3.74306e-08
21678 2 26.2005 4.82353 5.92482 -3.37565 2.32389e-08
43936 1 0.881444 14.8291 16.3201 -6.54097 2.18974e-07
15245 2 12.748 6.32795 3.35902 -3.49635 0
13878 2 -2.00298 0.240326 14.8377 -3.54065 1.78172e-07
38350 2 5.55901 -3.91667 6.27647 -3.41684 7.08842e-07
30788 1 -2.90814 5.03653 2.34992 -6.57411 0
50785 1 0.9589 26.5888 7.02152 -6.51759 2.11566e-08
50392 2 23.1832 28.7798 8.31137 -3.43542 6.10024e-08
62123 2 3.95322 10.2961 4.70434 -3.48846 3.22968e-08
1043 2 4.46138 19.6275 -3.32451 -3.42183 0
1533 1 17.7574 1.72251 10.6713 -6.71648 3.17021e-07
48219 2 25.2629 8.94628 -4.99921 -2.71397 0
2097 1 26.5538 13.4781 18.5025 -6.60847 3.63622e-07
31192 1 19.793 20.1558 14.9829 -6.46991 3.68508e-07
678 1 23.1157 12.6572 11.8554 -6.42485 6.47596e-07
2754 1 0.133417 16.4586 13.6198 -6.56833 1.41794e-07
8743 2 5.5911 8.79489 3.07272 -3.51906 0
27715 1 17.6701 24.8637 13.2259 -6.49947 7.60327e-07
45610 2 0.00603005 12.5531 8.33057 -3.5778 9.45503e-08
20068 2 5.11763 17.4453 -4.75395 -2.89142 0
9962 1 -4.26975 18.9973 18.1431 -6.45347 4.31211e-07
6803 1 14.6941 -4.42657 -3.25589 -5.95808 0
2447 1 15.1181 7.60509 7.5075 -6.8083 3.5265e-07
43270 2 6.59532 20.428 -4.76573 -2.76965 0
52367 2 4.89664 12.536 -3.51293 -3.25212 0
48723 2 13.63 2.23576 -4.26782 -3.17719 0
26600 2 20.2588 1.76762 9.27778 -3.47358 8.51645e-08
27047 1 28.135 17.7325 -1.94228 -6.71312 0
3007 1 11.227 14.4314 14.1019 -6.48807 5.59271e-07
17697 1 11.3482 12.3364 12.1123 -6.39184 4.06766e-07
21987 2 22.1409 2.84349 -3.18037 -3.27551 0
55904 2 6.47176 16.8854 7.49202 -3.50358 1.9982e-07
8439 2 11.9434 8.75505 16.5884 -3.4756 3.29835e-07
5385 1 8.16291 28.1741 4.3183 -6.28701 0
43750 1 28.4898 8.46189 17.8145 -6.71484 1.76571e-07
15828 2 10.7651 28.9548 -2.65438 -3.45731 0
23002 2 -0.744263 11.9327 12.0291 -3.48029 2.78628e-07
35907 1 28.1017 -4.4194 18.4253 -6.66877 2.63139e-07
29537 2 6.91869 14.1382 12.9965 -3.50188 3.32669e-08
44020 2 9.10907 8.00951 8.40508 -3.47393 2.49775e-07
7971 1 -4.61021 23.6023 7.13811 -6.73421 7.40344e-07
48846 1 -3.51635 26.8506 2.90075 -6.53595 0
9062 2 -3.42231 26.059 16.8264 -3.46651 1.19438e-06
1574 2 6.20668 13.6829 5.04912 -3.53018 1.90117e-08
95 1 -4.97365 12.0808 -0.10124 -6.64998 0
42200 2 23.0979 14.5964 7.58654 -3.55963 2.72918e-07
2566 1 21.6044 11.917 19.8925 -6.59437 1.9918e-06
21296 2 27.6085 4.20118 4.1426 -3.49065 0
139 2 19.86 8.98748 12.5928 -3.42933 4.59009e-07
1 1 2.61599 14.3792 13.379 -6.22785 1.21966e-07
9574 1 4.56746 28.8273 10.3457 -6.44204 2.28577e-07
35202 1 21.8294 11.8554 4.02417 -6.50137 0
31809 2 -0.427541 6.67082 7.63729 -3.4159 4.77367e-07
28025 1 21.9202 16.1957 -5.14825 -4.27929 0
6875 1 3.18859 -4.31115 0.302518 -6.40118 0
21647 1 19.1859 18.476 6.15051 -6.7156 2.1899e-07
3272 2 13.7743 11.9963 -4.16056 -3.01534 0
44627 1 2.50238 2.96906 8.54957 -6.32537 2.86804e-07
8282 2 1.46406 28.1598 -3.73742 -3.04492 0
49298 2 11.6739 19.8211 0.262511 -3.43368 0
14896 1 6.52686 -3.78904 3.8379 -6.43198 0
44542 1 7.14382 16.6323 12.2664 -6.77654 5.11417e-08
2859 1 17.0826 14.1376 19.0635 -6.56905 3.0082e-07
19560 2 -0.262046 10.8277 9.98635 -3.47251 3.71146e-07
62211 1 -3.77239 3.23941 -0.704357 -6.57535 0
62239 2 9.41215 6.39438 -3.14329 -3.35534 0
13532 2 6.77434 2.50629 -2.7874 -3.50964 0
8414 1 0.139391 1.49013 19.3263 -6.53006 8.81793e-08
7524 1 -1.09132 9.20656 -4.98417 -3.82625 0
43571 1 14.8272 0.665726 15.7416 -6.75481 2.21052e-07
29062 1 16.5026 7.99483 10.095 -6.23311 4.01011e-07
235 2 10.6457 -3.12387 -0.511706 -3.55025 0
1755 1 6.58218 -4.69767 18.0795 -6.61029 4.1636e-07
14542 2 25.3707 26.78 3.10372 -3.47882 0
7558 1 11.6203 4.83756 5.38117 -6.61082 2.97026e-07
7542 1 1.09476 20.3088 3.92786 -6.6464 0
44653 2 23.6386 12.5561 6.42996 -3.53146 2.24877e-07
9019 1 6.37195 27.5143 12.2546 -6.36035 2.03662e-07
13937 1 17.0878 13.604 14.2254 -6.48607 4.65052e-07
26880 2 17.8207 20.1063 4.24851 -3.53857 0
15124 1 24.0679 2.86237 4.7927 -6.32707 7.61446e-08
43334 2 18.6388 -0.662585 -3.39996 -3.17239 0
43380 1 -0.331317 10.3509 -2.10881 -6.3638 0
29447 2 27.5451 21.2879 15.7995 -3.55589 3.76023e-07
24608 1 26.1361 9.07717 15.3919 -6.51249 8.35473e-08
22104 1 4.321 17.2102 9.32333 -6.50569 2.2776e-07
791 2 10.7003 9.76302 6.95902 -3.5383 2.45361e-07
51188 1 2.7327 5.64625 7.08823 -6.67571 2.62671e-07
15484 1 17.7436 -2.61135 12.7629 -6.53332 4.08523e-07
7026 1 1.66752 16.432 10.7028 -6.54758 6.9821e-08
7109 1 2.46041 5.57018 1.7954 -6.6577 0
7890 1 1.57839 18.8349 12.6644 -6.36912 7.60169e-07
43015 2 -5.29669 9.22341 12.36 -3.50282 3.3133e-07
44257 2 2.27797 14.9816 2.66322 -3.52653 0
57864 1 2.64662 11.0181 -2.83899 -6.16489 0
10150 1 -4.46629 22.4758 14.4296 -6.39891 1.46937e-06
48880 1 -5.2861 11.3059 19.5254 -6.34027 4.30292e-07
55205 2 2.77139 17.92 -4.20441 -3.17319 0
20308 2 19.7998 13.501 4.6767 -3.50121 6.35403e-08
2134 2 3.95805 26.6628 2.59808 -3.5403 0
43410 2 5.16625 5.90794 2.39402 -3.36461 0
49495 2 12.4371 14.1708 16.6947 -3.50347 2.18977e-07
7466 2 12.8255 -0.0803533 3.89519 -3.45907 0
9701 2 -3.44511 27.2748 20.0643 -3.41926 5.98636e-07
15635 1 20.2494 27.5966 0.433588 -6.65264 0
469 1 15.1548 6.92769 -3.40343 -5.61326 0
1172 1 24.2598 5.57541 17.0611 -6.46231 4.15318e-07
13609 1 10.5043 26.6912 -1.29134 -6.39437 0
1976 1 16.9262 20.2531 14.3376 -6.58991 5.7609e-07
21612 1 4.12369 15.092 -5.10938 -4.11736 0
462 1 19.3177 23.002 8.86281 -6.76631 2.07567e-07
22362 1 28.2137 26.2428 3.43367 -6.61028 0
42113 2 -3.30248 13.1101 18.8468 -3.54749 1.50707e-07
6202 1 24.0589 -3.50784 0.826152 -6.47083 0
62317 1 22.1473 4.26444 -0.751265 -6.21577 0
508 1 -1.23753 18.6 5.17806 -6.4937 1.46065e-07
9108 1 4.49947 9.25674 12.5003 -6.42953 6.55301e-08
57838 1 18.4421 11.2254 13.0925 -6.54579 2.56788e-07
3742 2 -1.82076 0.271259 8.87159 -3.5349 2.40906e-07
1081 1 9.26186 18.7106 4.0815 -6.59301 0
2095 2 -1.00092 -3.57236 4.68997 -3.50848 1.20095e-07
2256 1 -1.66289 8.10699 17.042 -6.69634 4.41918e-08
51672 2 -4.27204 26.1852 0.112806 -3.48918 0
6765 1 16.8525 19.1388 -3.00243 -6.3754 0
2578 1 -0.806137 22.6217 17.9189 -6.69524 1.49265e-06
7989 1 28.9913 28.9612 2.92144 -6.42499 0
20821 2 10.6814 26.5504 7.66606 -3.49499 1.1265e-07
56298 2 17.5085 12.3814 5.41636 -3.45697 7.47674e-08
7096 1 16.2951 20.5645 1.97225 -6.53874 0
43749 2 1.15557 27.3248 0.581715 -3.36679 0
22361 2 27.1675 1.83034 8.65677 -3.5189 1.02827e-07
51049 1 -0.00762971 25.1679 4.55191 -6.40982 0
13978 2 2.72557 -3.07343 -2.22939 -3.48394 0
7859 1 21.7606 14.64 10.1548 -6.78608 3.69888e-07
1528 2 26.9107 9.33387 7.22592 -3.53351 7.43084e-08
468 2 3.33761 11.9297 11.3862 -3.50919 1.33907e-07
993 1 -2.13169 23.0656 -3.09936 -5.62164 0
36178 1 27.5054 0.889828 1.09095 -6.48831 0
57738 2 13.6349 12.7916 0.104403 -3.45616 0
44331 2 7.43202 0.622341 4.363 -3.46627 0
5806 2 13.7482 24.9502 9.35251 -3.50877 9.5611e-08
521 1 7.78548 26.709 14.7333 -6.68403 1.41946e-07
9694 1 -3.91409 26.4628 11.1709 -6.70826 6.32072e-07
1464 1 15.0064 2.77737 18.5819 -6.46273 9.02934e-07
21172 1 -0.352814 2.19014 7.38389 -6.57277 3.11073e-07
6642 2 10.3982 22.3157 -4.03019 -2.91646 0
28043 2 24.3196 18.6561 2.1314 -3.52003 0
52295 2 25.1652 -4.35431 3.69714 -3.53827 0
7137 2 14.9833 25.654 -1.35651 -3.42064 0
16705 2 -0.1855 11.8173 5.93427 -3.58177 4.0829e-07
15931 2 18.0055 16.0495 13.2331 -3.57587 6.66408e-07
34053 1 -1.59394 28.2374 -3.79719 -4.77662 0
29435 1 22.2514 8.63624 1.1198 -6.45936 0
389 1 22.3646 15.8709 16.6641 -6.585 4.92243e-08
323 1 26.1042 6.77191 -3.21428 -5.71506 0