ITEM: TIMESTEP
88000
ITEM: NUMBER OF ATOMS
62500
ITEM: BOX BOUNDS abc origin pp pp pp
103.2491693379 0.0 0.0 -5.374584669
0.0 103.2491693379 0.0 -5.374584669
0.0 0.0 193.2491693379 -5.374584669
ITEM: ATOMS id type x y z NonaffineSquaredDisplacement STZ
57952 2 11.4297 -3.94347 -2.89871 9.2918897579e-30 0
21686 2 25.2439 18.8234 7.89069 0.40685416 0
748 1 14.7739 20.6231 4.863 0.3418991415 0
1582 1 3.83532 19.717 14.9158 0.6824811423 0
9337 1 13.738 20.253 12.9312 0.3824701613 0
44418 1 8.29537 -4.93982 15.4845 0.2738886342 0
42242 2 15.1632 8.28635 -1.09787 6.2228361321e-30 0
955 1 20.078 5.0173 -2.88058 3.0785990161e-30 0
7339 2 28.199 6.26114 -1.3816 1.4088495397e-30 0
12519 2 -0.0910999 11.9724 0.445581 3.4851628274e-30 0
8980 2 24.5319 21.2671 7.6686 0.4379324282 0
55618 2 -5.33452 6.30734 27.4022 0.4370844892 0
6480 2 10.6176 10.3342 -1.8349 2.4486273313e-30 0
7892 1 15.5868 14.4458 -1.61306 5.8612788963e-30 0
7574 2 16.6122 28.1763 3.75852 0.0370904154 0
17282 1 27.2719 10.5141 19.943 0.4986591512 0
20093 2 1.46591 1.21702 -0.0482386 4.4142314325e-31 0
31375 1 23.8684 22.1001 17.3724 0.5507253234 0
5722 1 5.41798 23.9258 -0.612937 5.3496556065e-30 0
28857 2 9.70113 15.1273 5.28718 0.253521924 0
4 1 -3.84785 1.99824 8.31626 0.1856008388 0
11419 2 22.0509 21.9965 8.51809 0.9008138839 0
8724 2 -5.09342 3.05769 -4.93371 5.5414421178e-30 0
43105 1 4.57438 1.58593 4.38899 0.0889530459 0
5516 1 22.2423 17.5228 11.4146 0.2371026139 0
6438 1 11.1315 24.2534 2.9687 0.069467631 0
58369 2 -0.635328 20.7092 12.0609 0.2386875263 0
48510 2 4.47781 7.8384 1.21959 1.5625069639e-30 0
9010 1 18.0458 2.48366 1.42504 7.5592750317e-33 0
22360 1 2.20655 9.35438 10.6297 0.2330282683 0
44144 1 11.2568 21.9232 8.9858 0.375058559 0
7055 1 16.8063 -4.37129 10.216 0.4141548694 0
1604 1 1.00296 11.8035 16.3504 0.5432693947 0
14684 1 23.62 -4.72791 15.8039 0.1147254526 0
30772 2 26.0295 3.42232 10.2922 0.2705629187 0
50961 1 23.2112 28.935 -0.046695 1.2407803667e-31 0
14744 2 19.8517 9.96114 2.41659 0.003778537 0
17422 2 4.03927 -5.07899 12.9988 0.4257222263 0
18883 1 28.2039 3.70046 0.185049 7.0996586213e-30 0
7519 1 -0.527793 3.13692 4.13345 0.0576069976 0
1418 1 3.38962 6.37481 17.4207 0.404148312 0
7169 1 23.5282 -2.20954 6.89048 0.3847146881 0
22577 1 16.2343 1.41884 -3.42378 6.0577839359e-30 0
3381 1 7.96225 -4.92929 6.84679 0.3472566335 0
7054 2 27.4843 28.6145 17.8935 0.3319619407 0
35890 1 23.6846 4.19527 1.8536 0.0076717914 0
1032 1 22.3058 19.8612 -1.73928 5.5012262931e-30 0
16984 2 17.7368 -3.10509 15.7202 0.5693785345 0
32129 2 7.52647 21.0772 17.5915 0.3689301265 0
15382 1 -3.46079 -4.85738 5.40091 0.3167348467 0
43377 1 2.80618 0.433632 -4.53497 1.5265402222e-30 0
31390 1 8.02765 17.7654 17.2838 0.3273124306 0
43457 1 -5.209 16.4435 2.98464 0.0433771831 0
34871 1 18.0426 28.7247 -3.68476 3.2609845818e-30 0
15108 2 9.97408 3.33196 13.2137 0.8740348582 0
2103 1 17.1436 9.66509 3.29466 0.0268379288 0
36718 2 10.2573 -0.37249 7.47553 0.2215296636 0
3082 1 9.89615 13.1177 9.60621 0.1604212771 0
15490 1 20.9962 0.111317 14.3809 0.4169955785 0
62076 2 12.7297 -2.03483 -1.6174 1.4269214958e-30 0
15444 2 24.3941 3.18109 -1.86198 2.3280641168e-30 0
10213 2 -4.45609 10.8252 13.8898 0.3056249795 0
48478 1 4.57107 15.0304 6.68028 0.5656581121 0
538 1 9.37729 -3.66787 -5.18007 3.080838662e-30 0
52144 2 -0.70859 25.5239 -3.27864 1.705488003e-29 0
1417 2 24.3216 24.448 -0.23941 5.2541294813e-30 0
29852 1 23.5789 25.4617 11.8843 0.3078229821 0
34336 1 -1.83592 13.17 4.02255 0.0694887587 0
15641 2 -0.342283 -0.0851186 16.659 0.3229290014 0
36191 1 11.0235 -2.27574 12.0277 0.3067756941 0
14900 1 3.31568 15.9716 18.1662 0.8308977219 0
14601 1 9.13432 8.19649 15.9644 0.1795899767 0
57625 1 21.0633 -0.354365 7.71859 0.3040988144 0
998 2 -2.71605 10.6525 19.0137 0.3415471556 0
48239 2 14.9102 10.3515 1.55548 3.934012838e-32 0
28527 1 7.35473 3.59206 8.15025 0.3786283711 0
14265 2 19.0631 -0.760808 6.03754 0.0864865439 0
23631 2 27.2774 4.31284 -2.83655 4.2093124865e-30 0
24567 2 15.5027 7.7019 4.47662 0.087609171 0
57303 1 -4.37852 1.95247 11.4621 0.2914795744 0
46133 2 4.33946 22.0807 13.1412 0.3287278402 0
21898 1 15.7631 26.5089 28.5878 0.1386344575 0
15523 2 6.24533 24.8275 6.87096 0.1913127244 0
398 1 18.0917 12.0684 8.20473 0.418952424 0
1336 1 6.14278 5.05687 10.9785 0.4613686408 0
50864 2 7.90548 6.78457 19.7743 0.3025675718 0
57958 2 -0.180267 -3.62693 8.32302 0.3617876939 0
8419 2 18.2866 13.6041 16.6748 0.2239084502 0
921 1 14.5033 -2.51861 11.4328 0.2835126191 0
9890 1 14.9726 24.8257 14.971 0.3066910585 0
22583 1 10.8005 12.1275 -4.2086 1.3558546808e-31 0
7050 1 17.2135 25.5559 -3.06644 4.0993418866e-30 0
43482 1 4.85037 16.1846 3.30358 0.0627099562 0
43264 1 -3.58052 15.2606 0.402155 5.1530181592e-30 0
44008 1 1.38624 -4.13841 13.2502 0.3722405988 0
3490 1 19.0516 5.87149 18.822 0.1749792153 0
45475 1 5.94714 19.7013 8.27346 0.2263637881 0
50934 1 -0.857573 26.1309 9.91653 0.2648592949 0
21332 2 15.6061 1.47667 2.93705 0.0799159298 0
15623 2 20.4164 0.0819141 -1.30357 5.0960587811e-30 0
840 1 9.46393 19.4032 8.88422 0.3764802591 0
28616 2 27.0021 20.3802 -0.683217 3.3742292626e-30 0
1583 2 8.20433 18.4401 6.65044 0.2300066279 0
15509 1 19.8424 9.52369 -0.80729 5.0807235639e-31 0
434 1 9.10341 2.66398 -0.885208 2.5013978118e-30 0
14682 2 6.64362 2.1108 2.72665 0.0437344261 0
21615 1 23.7319 13.3367 1.80718 0.0143034124 0
16019 1 10.3061 5.27713 -0.651325 5.7985898766e-30 0
29656 1 -2.36102 10.1042 0.128968 1.7796345003e-30 0
49429 1 17.0886 27.1495 11.3714 0.2764767428 0
55621 1 12.6502 6.14775 19.8141 0.2767886813 0
317 1 15.3799 4.49702 7.47523 0.5495555655 0
15239 1 -2.28637 -4.01575 10.2983 0.439859567 0
10009 2 7.81983 23.9479 14.3905 0.185358498 0
42645 2 -1.4199 5.33366 17.5553 0.1675583852 0
45132 2 0.347143 0.501682 5.1804 0.1317112294 0
17157 1 7.2857 16.2812 5.04583 0.201147644 0
1734 2 -0.281685 5.38372 1.93932 0.0133674398 0
58172 2 10.5651 7.11491 6.63495 0.2415762925 0
587 1 2.27457 19.585 0.943568 4.434453697e-32 0
8246 2 5.79578 22.4837 7.39511 0.1581534474 0
7614 1 12.7282 24.5795 -0.167763 1.8937308031e-32 0
87 2 19.6131 -4.59432 15.9512 0.3847077294 0
56316 1 16.5678 22.3797 -4.17873 4.0436825112e-30 0
7863 1 -3.4308 19.8868 15.2511 0.442716859 0
49502 2 4.25712 11.3121 -0.498451 6.5342951153e-30 0
36456 2 -4.38298 16.9172 19.8861 0.3832869985 0
191 1 -0.456828 12.612 19.2325 0.2794261447 0
309 1 13.7629 9.16775 14.2552 0.3892623878 0
22937 1 14.0023 17.4854 5.64915 0.4183620681 0
470 2 7.49685 6.26991 8.90523 0.1452823018 0
7089 1 5.22968 10.4346 9.74292 0.2573108059 0
17814 2 16.5325 19.1643 6.391 0.2867146864 0
13140 2 18.7204 17.6637 14.89 0.1089672625 0
50790 2 -0.379001 20.8641 15.79 1.2289099441 0
12706 2 19.7711 5.74283 9.69128 0.3566030204 0
1410 1 -3.47598 0.282062 17.149 0.3340955571 0
41690 1 21.5803 2.97221 15.0135 0.7679815061 0
7582 1 9.88177 20.1239 16.6054 1.1225077363 0
50762 1 0.373217 25.1189 13.2012 0.411596684 0
8654 2 10.8308 18.066 6.40637 0.145771381 0
43372 2 8.93847 -3.40511 13.4131 0.099107035 0
22879 1 3.37494 7.42585 4.26419 0.0552139464 0
48070 2 -4.48549 6.32044 13.6471 1.3458678791 0
22314 2 8.49752 -1.12949 13.7575 0.0702452036 0
1899 2 16.976 -3.7094 1.78695 0.0056293693 0
15460 1 8.38267 0.625306 1.62028 0.0020900995 0
43923 1 8.47462 -4.59756 11.0632 0.3715791906 0
49873 2 11.3458 -5.08775 15.5515 0.5198126744 0
42924 1 4.22915 20.9095 3.61364 0.0435081809 0
8172 1 11.6896 10.6889 9.48752 0.5053847342 0
50274 1 1.06454 16.025 -5.22694 1.3677111871e-30 0
21319 2 14.4642 14.7269 -4.20767 6.9073958938e-30 0
21901 1 15.0548 2.86813 0.399942 5.2245784937e-30 0
36996 1 12.8829 9.5505 -0.044057 7.0853157095e-30 0
35417 2 1.42412 17.8975 5.11401 0.426697485 0
51094 2 18.3275 0.503978 8.23607 0.0944910142 0
15141 1 5.156 -4.53215 -2.1071 1.2848360141e-31 0
42344 2 4.80758 3.52414 1.93448 2.7581242734e-30 0
27745 1 14.1957 3.88688 15.6652 0.165391601 0
44006 1 3.67439 -2.3617 13.5405 0.3073144865 0
5101 1 14.5926 19.4612 -0.462892 5.4234187234e-31 0
2280 2 9.87842 10.195 20.1648 0.4486297661 0
1277 1 14.7436 7.52057 1.56986 1.2584077414e-29 0
36112 2 27.2716 4.63367 12.0581 0.1681877779 0
7120 1 7.83916 2.02479 14.4939 0.4898806239 0
8401 1 7.59201 24.5091 17.4603 0.850556693 0
6954 2 20.0518 4.76919 13.5614 0.8512365719 0
1449 2 2.31413 22.2994 2.01787 3.5135221458e-30 0
744 1 10.1725 -0.535418 4.69909 0.0787222463 0
55321 1 1.38477 -0.630838 -2.10289 2.2564195228e-30 0
8447 1 22.6384 14.7646 4.761 0.3027926201 0
2819 1 23.256 8.64461 16.341 0.7887993014 0
14977 1 8.67474 -4.33317 1.17887 4.7655210544e-30 0
15185 2 28.2005 2.48612 13.2583 0.2725380656 0
10373 2 0.454129 19.7668 17.9048 0.4534400176 0
7025 2 -2.46022 24.3445 3.21067 0.0283592068 0
6165 1 -0.964619 -0.382143 0.0144722 1.523112744e-29 0
34594 2 19.6121 -4.65149 8.38656 0.6786091653 0
8213 2 -4.39589 23.4008 4.356 0.072990916 0
12804 1 8.29238 24.0544 -1.49818 1.1134213278e-29 0
35501 2 15.8157 23.0781 5.45785 0.3351548817 0
36913 1 28.3807 24.0387 17.4155 0.9199683907 0
20611 1 24.7322 -4.02106 -2.78149 1.2321738672e-30 0
1340 2 0.3866 7.14349 11.0436 1.1401301883 0
42664 2 -2.68822 25.4402 -1.7794 4.851236974e-32 0
7847 1 22.1681 18.4819 4.468 0.0645262486 0
52746 2 -0.240007 7.31176 14.4153 0.413641932 0
43873 2 3.09068 1.31311 11.208 0.3408464135 0
22357 1 25.826 25.904 5.58715 0.1236162879 0
7844 2 22.1092 26.0452 1.89188 5.130192767e-04 0
1570 1 27.5686 15.5175 10.4397 0.2673920946 0
2393 1 8.34763 10.7156 8.53378 0.2734673312 0
22396 1 25.4858 0.966391 18.0343 0.1859747288 0
2688 2 -4.94642 23.7019 -3.51809 1.938255896e-30 0
44026 2 -4.28221 7.84043 -3.16035 3.1200065099e-30 0
58077 2 12.8685 1.43527 17.442 0.5048191713 0
17815 2 -0.0546902 15.0449 8.55234 0.5191070012 0
1836 2 23.8078 2.6175 10.9621 0.7594059326 0
4085 1 -4.21742 20.2141 -0.433084 5.7888157821e-30 0
9560 1 22.5173 21.9546 5.43063 0.1712814018 0
48311 2 19.0674 7.11365 16.4752 0.1236574811 0
9898 1 15.3403 12.2318 3.92089 0.083313662 0
1079 1 -1.73612 2.62718 13.4518 0.1785306716 0
25800 2 15.9055 15.0797 12.1873 0.3092878202 0
43584 2 18.0136 -1.11466 19.5257 0.3629576467 0
44652 2 9.85461 16.8667 13.2811 0.2963342427 0
2767 1 1.56551 20.4185 -3.72337 4.9496399571e-32 0
21093 2 16.855 9.20192 -2.59184 5.6699377563e-30 0
44475 2 -3.61057 -3.76816 -3.94362 2.7681421183e-30 0
903 2 8.45656 18.4162 14.575 0.4491149335 0
3328 1 -3.78568 15.7191 17.5861 0.4006890162 0
21237 1 19.8195 -4.67482 2.90425 0.0549612429 0
10425 2 15.1938 -2.61732 5.58541 0.3890614806 0
81 1 3.13753 8.33425 -0.931944 8.2886247017e-30 0
8821 1 -4.18841 23.2694 -0.763599 1.1263079056e-29 0
19477 2 25.4417 28.9425 9.09825 0.5070811877 0
23650 2 28.335 7.32112 15.0343 0.2128964432 0
36928 1 14.3169 -4.67067 16.2708 0.7023735843 0
875 2 11.1345 0.981074 2.20638 0.0123378061 0
50037 2 -3.62781 17.9375 1.09086 0.0085086449 0
391 2 -1.45409 21.0457 4.09844 0.0512400961 0
16374 2 5.87291 25.1586 19.9141 0.6972243191 0
43586 1 8.4731 8.14944 -1.07049 6.0333246256e-30 0
8146 1 2.51538 13.0653 0.929678 1.3497928163e-29 0
10074 1 23.264 19.0237 18.2476 0.695421137 0
55572 2 24.2578 -1.42915 -4.43279 2.9690617505e-30 0
37025 2 -3.96977 13.4759 15.7671 0.2156493094 0
36370 2 21.3297 16.8438 -2.62996 2.1825601095e-30 0
3085 2 16.2189 12.816 -4.10185 7.0046072077e-31 0
6434 2 17.1666 28.4671 18.9726 0.262922336 0
1627 1 0.869013 13.1396 -1.68787 1.0226688005e-31 0
25051 2 25.4774 -4.57076 17.7786 0.3506678468 0
20063 2 -4.74217 1.82892 5.58094 0.3640192092 0
30877 1 21.6028 27.3738 15.5208 0.1608158101 0
2195 1 -1.62654 -5.12101 -2.57234 3.0970879436e-30 0
38130 2 18.7791 3.54469 17.3694 0.2394966352 0
7244 1 -4.99535 0.0872883 3.20742 0.0406013055 0
2677 1 1.77819 8.68958 16.3302 0.6526565256 0
43137 2 5.60308 8.83216 5.51049 0.0381028606 0
8397 2 14.3674 18.1155 11.1166 0.2773307693 0
6748 1 22.0283 4.20161 9.61199 0.363089142 0
22652 2 26.914 24.5521 -1.28479 3.3276268625e-30 0
20250 2 25.0053 10.1136 -2.5707 3.7486300438e-30 0
1816 1 10.2898 7.75834 18.822 0.2680550207 0
1924 2 27.5673 22.9934 10.5039 0.6364578817 0
452 1 17.2238 0.950613 17.9223 0.2722618177 0
50626 2 27.3024 28.3804 10.4569 0.3634905626 0
57366 1 3.2274 -1.46189 16.2689 0.3630125064 0
413 1 -3.51991 21.8876 2.1146 0.033328635 0
13344 1 14.0507 17.1766 -3.03566 5.1873478605e-30 0
28902 1 24.9777 19.6541 4.95269 0.1092508937 0
14163 1 8.35867 15.5334 15.0564 0.3580519316 0
34077 1 23.4582 17.3787 -0.537019 1.9363781143e-30 0
50288 1 3.3445 26.4015 -0.285871 3.5687481869e-31 0
766 1 24.3478 -2.34699 10.8623 0.379890285 0
5686 2 10.3292 1.11273 -2.71015 7.2865633516e-30 0
58615 1 -1.49642 2.77225 10.5004 0.4798199671 0
50986 1 -3.39978 20.4337 12.3086 0.3701996535 0
15240 1 2.54504 3.25023 13.5107 0.2442362769 0
48357 2 4.13847 21.9006 9.07908 0.1345047317 0
5365 2 9.92349 14.9567 -3.57035 6.8131818083e-30 0
42796 1 -1.73484 8.28983 2.72282 0.0543992063 0
53734 2 27.9939 6.30883 0.990734 3.0760953072e-30 0
22733 2 24.1513 26.5794 0.855186 3.3411032675e-30 0
48561 1 19.2882 28.0082 5.54107 0.194159935 0
40841 2 20.5613 20.6723 10.1101 0.3182359757 0
44825 2 -4.3431 21.2199 -3.06092 4.5066760699e-30 0
43938 2 4.7588 4.59792 8.73296 0.2399989415 0
7151 1 -3.4641 16.0102 11.9528 0.3763957719 0
42186 2 9.89105 24.9378 15.3541 0.3176714259 0
337 1 22.8288 -0.702551 1.82069 0.0136552397 0
15714 2 28.1342 -1.813 13.9172 0.1637635803 0
28245 2 7.63099 0.392455 12.1871 0.2684999852 0
1440 1 -1.32272 -2.82189 1.86004 0.0050004996 0
6038 1 -1.74476 -0.0143694 2.96965 0.0104168083 0
16108 2 20.3884 -1.86353 3.17329 0.0259042377 0
8700 2 -1.97325 24.6209 11.8192 0.2720882659 0
420 1 23.8036 24.5979 3.0907 0.0187278752 0
230 1 24.0281 21.3529 2.6637 0.0130357927 0
33634 2 22.3048 -4.08876 -1.40318 6.2169018605e-31 0
15035 1 5.06574 12.2279 13.4355 0.4727808918 0
5622 1 6.22611 26.9008 -1.50158 7.3979091858e-30 0
7813 1 8.03039 12.0302 18.6857 0.2912487251 0
15547 1 15.5109 -1.43115 3.28243 0.064449538 0
48669 2 2.23664 23.2186 4.29106 0.04291084 0
30429 1 5.38034 24.7498 12.882 0.2240138168 0
27206 1 26.7892 7.49353 12.6766 0.7407863551 0
36013 2 15.9988 17.2515 -1.1847 3.3230476743e-30 0
952 1 2.68614 0.440519 7.012 0.1909054318 0
42436 1 25.87 -1.61126 2.19563 0.0288839525 0
38949 1 28.7811 -3.41072 11.4769 0.316475912 0
10026 2 -2.61883 16.6227 6.47078 0.1814322669 0
61796 2 8.12804 -1.81831 11.244 0.0833769017 0
16490 2 16.3477 15.3869 0.796031 7.4042376712e-30 0
7538 1 12.5082 17.0162 12.5472 0.5756801809 0
37396 1 -5.07223 26.7889 8.11441 0.3068584458 0
7152 1 -3.75409 3.76577 17.8485 0.2131845962 0
2714 1 -3.1042 16.1592 9.09057 0.2320468168 0
62414 1 3.45597 -4.96978 -4.65451 6.6074804532e-30 0
7860 1 9.25127 20.9858 -1.75618 7.0591591734e-30 0
211 2 12.4939 11.8693 -1.87895 6.1792017818e-30 0
8366 1 6.08457 27.1262 17.2766 1.0051021357 0
24499 1 27.0494 5.91531 19.5877 0.3893205107 0
10293 2 16.8436 16.8976 18.6791 0.4556517591 0
28782 1 26.058 11.8087 8.3377 0.2133848644 0
52737 1 -3.15021 -2.06601 4.45047 0.0709972915 0
45536 2 19.7048 13.8659 19.5973 0.1663316621 0
43 1 3.56321 10.3551 2.11208 0.0073659474 0
23425 2 4.80784 23.4518 5.28852 0.2916654185 0
12242 2 2.41106 28.8438 -1.49612 3.6014679311e-30 0
24645 1 23.3363 23.1424 14.3533 0.2636104379 0
35142 2 8.16901 11.4893 6.0085 0.1711817613 0
2643 1 24.0338 10.635 13.8548 0.2973427497 0
7085 2 2.68716 7.10292 -5.10503 6.9181329532e-30 0
58019 2 -0.756565 -2.76198 12.1199 0.393412227 0
10490 1 0.184237 -1.28161 14.2235 0.3277569212 0
49988 2 11.1515 20.0246 2.59693 0.0267495956 0
44244 1 13.7884 5.76027 9.95619 0.3797002394 0
946 1 23.2165 27.4776 5.20451 0.0430398962 0
35841 1 15.6224 6.70611 12.656 0.1982247417 0
8893 2 17.5689 11.0907 16.0034 0.4902639171 0
21836 2 10.0471 23.7555 13.2233 0.3712263429 0
20516 2 14.2213 15.8132 10.4304 0.7759737861 0
43841 1 9.55082 -4.2457 4.07018 0.0811944195 0
7686 2 3.96757 18.5598 19.5259 0.3432060166 0
1569 1 16.4995 -4.44312 -1.12116 6.2046270664e-30 0
11225 2 8.59927 -0.119129 19.0507 0.2734077886 0
2019 1 4.49781 14.6018 11.2705 0.3040878468 0
45394 1 -2.98766 8.56053 14.1828 0.6958828254 0
1125 2 24.4983 7.77339 10.5604 0.5968369817 0
297 1 10.6466 -2.33406 15.255 0.2427030221 0
2838 1 -0.1124 23.1563 10.8527 0.2090457444 0
44352 1 17.5132 3.58636 -1.35655 1.2980767825e-30 0
7657 1 27.1768 23.447 -4.06881 2.4029835439e-30 0
4097 2 24.8181 19.9822 0.179302 5.4526010877e-30 0
23498 2 6.7044 20.9414 10.525 0.4265980273 0
58156 1 -5.05859 -3.85524 11.2948 0.3693918803 0
720 1 0.0760156 24.8036 -0.354706 1.4120773908e-29 0
24959 2 5.38218 -3.2445 15.7577 0.3561628269 0
54187 2 4.4301 25.941 10.5311 0.1107427737 0
55051 1 6.08535 21.3729 -2.23041 4.9369769677e-30 0
16887 1 23.9251 -2.23809 13.9899 0.2153348278 0
14195 1 4.44528 3.42014 18.1493 0.4466693019 0
17081 2 12.2989 -4.66394 -5.17912 8.3559178976e-31 0
51103 1 20.4843 27.6676 -2.51144 7.444297014e-30 0
15103 1 12.3168 -4.01927 7.70048 0.2772392124 0
57928 2 -2.14215 -2.12541 16.0445 0.7113902607 0
1229 2 6.1032 -0.377119 0.389452 1.393651056e-30 0
20383 1 22.8577 -2.78563 3.73827 0.0581602563 0
31100 2 5.30661 6.56082 19.6123 0.3480317722 0
7829 2 25.7253 20.9421 -4.79866 2.7868687778e-30 0
22611 1 23.3226 5.64797 -3.04914 5.7993602485e-30 0
6283 2 12.0224 15.3478 -4.90046 7.9502388104e-31 0
29854 2 26.626 9.61282 4.3318 0.0449165063 0
35602 2 13.3338 23.1432 13.0176 0.2039827085 0
7520 1 -0.972789 23.7618 7.60977 0.3819234836 0
47824 1 7.33552 15.3968 -5.0966 6.3245733814e-32 0
49254 2 24.4246 25.9123 19.7382 0.4541668294 0
20737 2 -1.93697 18.6602 -0.931895 9.5295013648e-31 0
15968 2 14.0536 3.41196 5.35218 0.6974560766 0
1717 1 25.8219 27.2543 -1.05309 1.0477398944e-29 0
35715 2 26.7336 11.633 -4.04632 6.1090497836e-31 0
43967 1 -1.31846 5.30954 -0.931416 4.6476541418e-30 0
31884 1 3.04278 16.8031 15.3343 0.4249184168 0
10020 2 -2.68733 23.3214 9.69818 0.2669529898 0
42392 1 1.16327 -2.58359 6.14314 0.3475138442 0
44304 2 22.5554 9.81655 -1.37008 3.2663771857e-30 0
57152 1 5.90019 22.2662 15.3786 0.5541863177 0
3440 1 21.6002 3.99884 18.3056 0.3002944138 0
50464 2 10.9695 23.2218 -1.9054 3.1123027901e-31 0
36920 2 27.287 6.89952 6.46088 0.1766052373 0
6860 2 4.71071 3.65018 -1.98449 2.2980677579e-30 0
7155 1 10.0376 16.9463 10.6192 0.3094124573 0
728 1 15.7912 11.2197 18.8896 0.5211646126 0
51248 1 3.04777 24.225 14.73 0.4794064108 0
20581 1 0.62207 -3.08708 16.6203 0.2077750318 0
20149 2 5.95007 -1.80503 -1.68408 2.0386999135e-30 0
611 1 18.0749 0.278803 3.7476 0.0708579165 0
20653 1 19.5331 -2.72671 -5.06175 2.7502279606e-30 0
8450 2 12.5133 -1.75465 9.53869 0.4259626307 0
15020 1 11.48 -4.60656 1.88531 3.6823780537e-30 0
24098 1 21.9516 27.8827 10.4625 0.73867052 0
20096 2 0.74228 0.701952 2.43953 0.0056195898 0
36787 2 21.0952 22.8212 16.1584 0.4072735758 0
7143 1 1.071 12.488 3.39108 0.0787084553 0
8391 1 17.416 8.63431 17.8963 0.237205065 0
43440 1 18.4692 6.51456 12.0338 0.6656643731 0
22682 2 3.17027 18.297 3.27085 0.0487235833 0
48623 2 0.0156765 1.05205 -4.06469 2.1726415703e-30 0
58138 2 13.5532 14.3406 12.4339 0.3363168455 0
23839 1 14.1127 22.5024 10.3054 0.5133499838 0
47182 1 -3.26456 -2.18679 13.2763 0.2403220997 0
122 1 24.1807 9.93607 3.30222 0.0338431715 0
19772 1 4.94531 -2.00066 -4.17166 6.1623980431e-30 0
27679 1 24.891 7.89183 5.67963 0.2162397871 0
6093 1 -4.82837 0.417131 14.2142 0.6933427698 0
7826 1 12.3849 27.1806 18.4053 0.3972528396 0
50186 2 4.12382 -5.25121 3.29713 0.041521076 0
1241 2 17.3466 28.1494 1.31847 1.6555775284e-30 0
43106 2 28.3899 0.41848 14.8154 0.2092999697 0
23898 1 21.581 2.6996 6.72326 0.3681941589 0
32142 2 23.8912 16.9507 6.27063 0.2726893802 0
384 2 6.94922 19.2882 -0.10408 7.3347597485e-30 0
26776 2 13.1656 -4.14162 20.1124 0.1882493594 0
42658 2 24.9079 13.5262 -3.5104 3.7392411353e-30 0
3274 2 27.7207 27.2691 0.978358 1.5413217345e-30 0
21731 1 16.0977 23.486 17.8435 0.1988606731 0
50419 1 -3.32705 18.7392 -3.54829 2.6818574476e-30 0
43921 1 7.66202 -2.60084 20.0912 0.3814540816 0
21207 2 8.37221 25.9271 6.38087 0.3670992467 0
10679 2 25.1806 21.1075 14.776 0.6282176539 0
1660 1 15.948 6.01642 19.9649 0.1809666091 0
6586 1 18.2029 -1.7307 -0.872384 1.9543592282e-30 0
23235 2 -3.86913 23.2982 11.8642 0.3260345202 0
56804 1 -3.08966 15.5457 -3.71801 1.6952110602e-29 0
29010 2 22.1067 24.1348 0.386007 2.2551511174e-31 0
15428 2 14.8975 21.3746 -2.35271 4.0259639557e-30 0
14257 2 3.20428 19.5547 8.37802 0.4592495004 0
23149 2 20.7357 17.8114 -0.341032 4.1469123563e-30 0
46770 2 -5.08965 16.7891 7.27934 0.2371213154 0
9993 1 14.4744 19.9508 -4.49673 3.3013358234e-30 0
5163 1 0.884744 9.56825 4.39264 0.1124334719 0
50112 2 15.7305 -4.39945 13.2274 0.3528274822 0
19217 2 28.083 13.0455 16.3234 0.1597877162 0
1366 1 27.3152 2.16471 5.86582 0.8794959045 0
1452 1 24.44 5.23543 12.1095 0.485023008 0
37454 2 0.408583 4.82876 -3.15812 1.8743150219e-30 0
48914 1 9.9172 20.7654 6.36641 0.1940765691 0
14846 1 27.3806 9.01845 10.0058 0.1458915627 0
31840 1 -0.0564677 -3.04783 -0.912615 2.7224945694e-30 0
3906 2 25.9352 13.3886 11.2795 0.531051041 0
51125 2 26.4238 -0.797329 15.7673 0.2144538104 0
14676 2 12.9359 22.5389 -3.41582 2.6081906272e-31 0
214 1 6.8854 6.5501 4.09737 0.0663981207 0
14622 1 5.67525 6.24391 6.74171 0.2572779656 0
21933 1 19.5365 -1.11792 17.1807 0.2240071339 0
21783 2 24.3814 15.4672 11.1301 0.2687261613 0
28114 1 13.8013 18.655 2.60081 0.0333220237 0
20665 1 5.90424 -0.507311 14.5901 0.4398904016 0
1842 2 -1.49961 14.1174 12.4572 0.5019701305 0
18039 1 1.34193 4.12756 18.1762 0.213265239 0
250 2 0.69646 10.0258 1.60756 1.0223606517e-29 0
23576 2 20.8552 18.2854 16.9168 0.4610829413 0
20699 1 20.7392 -3.03925 5.97318 0.2811164245 0
30851 2 5.13381 18.0742 17.2268 0.5203609602 0
20920 1 18.034 7.33813 -4.5602 4.1723346315e-30 0
36124 2 19.0756 20.9171 2.36639 0.0111711416 0
105 1 2.62681 11.7507 8.65217 0.2647516829 0
51503 1 -4.11622 7.30506 10.9485 0.5789869313 0
8290 1 5.04205 28.7377 4.22089 0.0935225881 0
29657 1 19.8962 -4.87092 12.7524 0.1174853745 0
43127 2 25.3632 17.7302 10.4874 0.1991704721 0
23711 1 6.44332 9.73372 14.89 0.4213847059 0
970 2 -4.80106 -2.08917 15.6011 1.0845117669 0
21678 2 26.2005 4.82353 5.92482 0.2080122911 0
43936 1 0.881444 14.8291 16.3201 0.3030292518 0
15245 2 12.748 6.32795 3.35902 0.0598686928 0
13878 2 -2.00298 0.240326 14.8377 0.5009432267 0
38350 2 5.55901 -3.91667 6.27647 0.1147158227 0
30788 1 -2.90814 5.03653 2.34992 0.0482085378 0
50785 1 0.9589 26.5888 7.02152 0.4104872898 0
50392 2 23.1832 28.7798 8.31137 0.3993088967 0
62123 2 3.95322 10.2961 4.70434 0.1369636022 0
1043 2 4.46138 19.6275 -3.32451 2.3950864788e-30 0
1533 1 17.7574 1.72251 10.6713 0.3349773798 0
48219 2 25.2629 8.94628 -4.99921 1.2007258387e-29 0
2097 1 26.5538 13.4781 18.5025 0.2639567043 0
31192 1 19.793 20.1558 14.9829 0.2209040186 0
678 1 23.1157 12.6572 11.8554 0.5305223366 0
2754 1 0.133417 16.4586 13.6198 0.9202769174 0
8743 2 5.5911 8.79489 3.07272 0.0095544055 0
27715 1 17.6701 24.8637 13.2259 0.4126762597 0
45610 2 0.00603005 12.5531 8.33057 0.3126753385 0
20068 2 5.11763 17.4453 -4.75395 4.0059613677e-30 0
9962 1 -4.26975 18.9973 18.1431 0.4494901136 0
6803 1 14.6941 -4.42657 -3.25589 2.4153087433e-30 0
2447 1 15.1181 7.60509 7.5075 0.6779500053 0
43270 2 6.59532 20.428 -4.76573 1.0881985668e-30 0
52367 2 4.89664 12.536 -3.51293 3.7287929653e-30 0
48723 2 13.63 2.23576 -4.26782 2.2340787355e-30 0
26600 2 20.2588 1.76762 9.27778 0.3134958854 0
27047 1 28.135 17.7325 -1.94228 4.3240979111e-30 0
3007 1 11.227 14.4314 14.1019 0.6060476425 0
17697 1 11.3482 12.3364 12.1123 0.3904040893 0
21987 2 22.1409 2.84349 -3.18037 5.2177060835e-30 0
55904 2 6.47176 16.8854 7.49202 0.1616862634 0
8439 2 11.9434 8.75505 16.5884 0.3575814067 0
5385 1 8.16291 28.1741 4.3183 0.0699834882 0
43750 1 28.4898 8.46189 17.8145 0.8911920288 0
15828 2 10.7651 28.9548 -2.65438 1.696744281e-31 0
23002 2 -0.744263 11.9327 12.0291 0.5894843201 0
35907 1 28.1017 -4.4194 18.4253 0.3105365974 0
29537 2 6.91869 14.1382 12.9965 0.4105194017 0
44020 2 9.10907 8.00951 8.40508 0.5722168583 0
7971 1 -4.61021 23.6023 7.13811 0.5996548399 0
48846 1 -3.51635 26.8506 2.90075 0.035429121 0
9062 2 -3.42231 26.059 16.8264 0.2309610598 0
1574 2 6.20668 13.6829 5.04912 0.141177663 0
95 1 -4.97365 12.0808 -0.10124 7.3113115514e-31 0
42200 2 23.0979 14.5964 7.58654 0.382036204 0
2566 1 21.6044 11.917 19.8925 0.2977781637 0
21296 2 27.6085 4.20118 4.1426 0.1028397535 0
139 2 19.86 8.98748 12.5928 0.773232563 0
1 1 2.61599 14.3792 13.379 0.2363475147 0
9574 1 4.56746 28.8273 10.3457 0.2506405779 0
35202 1 21.8294 11.8554 4.02417 0.0777996212 0
31809 2 -0.427541 6.67082 7.63729 0.3349821671 0
28025 1 21.9202 16.1957 -5.14825 1.2871375004e-29 0
6875 1 3.18859 -4.31115 0.302518 1.2809745246e-29 0
21647 1 19.1859 18.476 6.15051 0.2553766644 0
3272 2 13.7743 11.9963 -4.16056 1.5407439555e-32 0
44627 1 2.50238 2.96906 8.54957 0.3354855109 0
8282 2 1.46406 28.1598 -3.73742 5.5524560297e-30 0
49298 2 11.6739 19.8211 0.262511 2.6780055877e-30 0
14896 1 6.52686 -3.78904 3.8379 0.0556583905 0
44542 1 7.14382 16.6323 12.2664 0.2895246914 0
2859 1 17.0826 14.1376 19.0635 0.2759495051 0
19560 2 -0.262046 10.8277 9.98635 0.1947088918 0
62211 1 -3.77239 3.23941 -0.704357 2.0840487928e-30 0
62239 2 9.41215 6.39438 -3.14329 8.0488584606e-30 0
13532 2 6.77434 2.50629 -2.7874 1.0375225352e-29 0
8414 1 0.139391 1.49013 19.3263 0.1338031329 0
7524 1 -1.09132 9.20656 -4.98417 3.3649847988e-30 0
43571 1 14.8272 0.665726 15.7416 0.7286166105 0
29062 1 16.5026 7.99483 10.095 0.6896954633 0
235 2 10.6457 -3.12387 -0.511706 3.1053694423e-30 0
1755 1 6.58218 -4.69767 18.0795 0.2425557298 0
14542 2 25.3707 26.78 3.10372 0.008006418 0
7558 1 11.6203 4.83756 5.38117 0.2105232516 0
7542 1 1.09476 20.3088 3.92786 0.0738029303 0
44653 2 23.6386 12.5561 6.42996 0.314906761 0
9019 1 6.37195 27.5143 12.2546 0.436035149 0
13937 1 17.0878 13.604 14.2254 0.2169320225 0
26880 2 17.8207 20.1063 4.24851 0.085639673 0
15124 1 24.0679 2.86237 4.7927 0.212004633 0
43334 2 18.6388 -0.662585 -3.39996 2.5673014794e-30 0
43380 1 -0.331317 10.3509 -2.10881 1.6177811533e-32 0
29447 2 27.5451 21.2879 15.7995 0.3868586525 0
24608 1 26.1361 9.07717 15.3919 0.5428111052 0
22104 1 4.321 17.2102 9.32333 0.3406981658 0
791 2 10.7003 9.76302 6.95902 0.748059479 0
51188 1 2.7327 5.64625 7.08823 0.2361023939 0
15484 1 17.7436 -2.61135 12.7629 0.2568314583 0
7026 1 1.66752 16.432 10.7028 0.6075226878 0
7109 1 2.46041 5.57018 1.7954 5.8211232569e-32 0
7890 1 1.57839 18.8349 12.6644 0.5134702239 0
43015 2 -5.29669 9.22341 12.36 0.2447046137 0
44257 2 2.27797 14.9816 2.66322 0.025414282 0
57864 1 2.64662 11.0181 -2.83899 4.8348545324e-30 0
10150 1 -4.46629 22.4758 14.4296 0.6513823641 0
48880 1 -5.2861 11.3059 19.5254 0.3131667977 0
55205 2 2.77139 17.92 -4.20441 2.9150875638e-30 0
20308 2 19.7998 13.501 4.6767 0.1185355215 0
2134 2 3.95805 26.6628 2.59808 0.026139793 0
43410 2 5.16625 5.90794 2.39402 2.2471750591e-30 0
49495 2 12.4371 14.1708 16.6947 0.3518796832 0
7466 2 12.8255 -0.0803533 3.89519 0.07117608 0
9701 2 -3.44511 27.2748 20.0643 0.1492527565 0
15635 1 20.2494 27.5966 0.433588 5.4824612656e-30 0
469 1 15.1548 6.92769 -3.40343 5.8407466775e-30 0
1172 1 24.2598 5.57541 17.0611 0.3108834721 0
13609 1 10.5043 26.6912 -1.29134 5.8977391575e-30 0
1976 1 16.9262 20.2531 14.3376 0.1429088018 0
21612 1 4.12369 15.092 -5.10938 7.7635229116e-30 0
462 1 19.3177 23.002 8.86281 0.1658352407 0
22362 1 28.2137 26.2428 3.43367 0.0279254712 0
42113 2 -3.30248 13.1101 18.8468 0.3304730502 0
6202 1 24.0589 -3.50784 0.826152 4.5636835962e-30 0
62317 1 22.1473 4.26444 -0.751265 5.2799549981e-30 0
508 1 -1.23753 18.6 5.17806 0.1354882328 0
9108 1 4.49947 9.25674 12.5003 0.3226320623 0
57838 1 18.4421 11.2254 13.0925 0.3281214604 0
3742 2 -1.82076 0.271259 8.87159 0.2393538093 0
1081 1 9.26186 18.7106 4.0815 0.0518522852 0
2095 2 -1.00092 -3.57236 4.68997 0.1472471968 0
2256 1 -1.66289 8.10699 17.042 0.578174945 0
51672 2 -4.27204 26.1852 0.112806 1.3458398451e-30 0
6765 1 16.8525 19.1388 -3.00243 1.0401803185e-29 0
2578 1 -0.806137 22.6217 17.9189 0.5941627881 0
7989 1 28.9913 28.9612 2.92144 0.027806341 0
20821 2 10.6814 26.5504 7.66606 0.2224973125 0
56298 2 17.5085 12.3814 5.41636 0.1369767089 0
7096 1 16.2951 20.5645 1.97225 0.0131428593 0
43749 2 1.15557 27.3248 0.581715 2.3149677932e-30 0
22361 2 27.1675 1.83034 8.65677 0.2806057222 0
51049 1 -0.00762971 25.1679 4.55191 0.0882229558 0
13978 2 2.72557 -3.07343 -2.22939 1.4607336034e-30 0
7859 1 21.7606 14.64 10.1548 0.3115614934 0
1528 2 26.9107 9.33387 7.22592 0.0888801446 0
468 2 3.33761 11.9297 11.3862 0.3129737237 0
993 1 -2.13169 23.0656 -3.09936 2.4047642768e-30 0
36178 1 27.5054 0.889828 1.09095 4.8718323873e-30 0
57738 2 13.6349 12.7916 0.104403 5.5574634475e-30 0
44331 2 7.43202 0.622341 4.363 0.0848007299 0
5806 2 13.7482 24.9502 9.35251 0.1556421401 0
521 1 7.78548 26.709 14.7333 0.588964358 0
9694 1 -3.91409 26.4628 11.1709 0.367726673 0
1464 1 15.0064 2.77737 18.5819 0.2791738885 0
21172 1 -0.352814 2.19014 7.38389 0.1374942324 0
6642 2 10.3982 22.3157 -4.03019 2.8991023453e-30 0
28043 2 24.3196 18.6561 2.1314 0.0039727389 0
52295 2 25.1652 -4.35431 3.69714 0.0372005473 0
7137 2 14.9833 25.654 -1.35651 2.1065821732e-30 0
16705 2 -0.1855 11.8173 5.93427 0.2042520275 0
15931 2 18.0055 16.0495 13.2331 0.1197948455 0
34053 1 -1.59394 28.2374 -3.79719 3.5302295881e-30 0
29435 1 22.2514 8.63624 1.1198 1.7104183836e-30 0
389 1 22.3646 15.8709 16.6641 0.7909417026 0
323 1 26.1042 6.77191 -3.21428 2.8133984628e-30 0
61845 2 11.9492 7.95657 8.37592 0.5452356301 0
36597 2 21.8912 8.69432 13.8299 0.3393503276 0
22697 1 25.73 -4.89075 6.43216 0.313383454 0
14595 1 13.2646 14.0588 4.97669 0.1425901064 0
42601 1 24.6033 0.0557878 4.33967 0.1221282975 0
47970 1 -4.76466 11.6412 8.84506 0.2071919394 0
14286 2 16.174 27.6314 -1.37401 3.1061879626e-30 0
46314 2 -3.85484 18.6227 10.3315 0.3160294112 0
28815 2 26.9201 21.7385 3.36752 0.0178029203 0