LAMMPS (22 Jul 2025)
# ===== Auto-generated for 1.Cu50Zr50 =====
units            metal
boundary         p p p
atom_style       atomic
atom_modify      sort 0 0
neighbor         0.3 bin
timestep         0.001

lattice fcc 3.7
Lattice spacing in x,y,z = 3.7 3.7 3.7
region  mybox block 0 25 0 25 0 25
create_box 2 mybox
Created orthogonal box = (0 0 0) to (92.5 92.5 92.5)
  3 by 3 by 4 MPI processor grid
create_atoms 1 box
Created 62500 atoms
  using lattice units in orthogonal box = (0 0 0) to (92.5 92.5 92.5)
  create_atoms CPU = 0.001 seconds

# 조성: Zr50 Cu50
mass 1 91.224000  # Zr
mass 2 63.546000  # Cu

# MEAM
pair_style meam
pair_coeff * * ../library.meam Zr Cu ../ZrCu.meam Zr Cu

# 타입 분할 (총 62500개 기준)
set type 1 type/subset 2 31250 88099
Setting atom values ...
  31250 settings made for type/subset

# 초기 속도/모멘텀
velocity all create 300 4928459 mom yes rot yes dist gaussian

# 공통 변수/thermo
variable Tdamp    equal 0.1
variable Pdamp    equal 1.0
variable Ptarget  equal 0.0
thermo 1000
thermo_style custom step temp press etotal density pe enthalpy vol

# 샘플 변수 (1 ps 간격)
variable vT   equal temp
variable rho  equal density
variable ent  equal enthalpy/atoms

# 1) 가열 300 -> 2500 K @ 10^13 K/s (220 ps = 220000 steps)
fix OUT1 all ave/time 1000 1 1000 v_vT v_rho v_ent file tg_heating.dat
fix NPT all npt temp 300 2500 ${Tdamp} iso ${Ptarget} ${Ptarget} ${Pdamp}
fix NPT all npt temp 300 2500 0.1 iso ${Ptarget} ${Ptarget} ${Pdamp}
fix NPT all npt temp 300 2500 0.1 iso 0 ${Ptarget} ${Pdamp}
fix NPT all npt temp 300 2500 0.1 iso 0 0 ${Pdamp}
fix NPT all npt temp 300 2500 0.1 iso 0 0 1
run 220000
Neighbor list info ...
  update: every = 1 steps, delay = 0 steps, check = yes
  max neighbors/atom: 2000, page size: 100000
  master list distance cutoff = 5.3
  ghost atom cutoff = 5.3
  binsize = 2.65, bins = 35 35 35
  2 neighbor lists, perpetual/occasional/extra = 2 0 0
  (1) pair meam, perpetual
      attributes: full, newton on
      pair build: full/bin/atomonly
      stencil: full/bin/3d
      bin: standard
  (2) pair meam, perpetual, half/full from (1)
      attributes: half, newton on
      pair build: halffull/newton
      stencil: none
      bin: none
Per MPI rank memory allocation (min/avg/max) = 10.05 | 10.28 | 10.71 Mbytes
   Step          Temp          Press          TotEng        Density         PotEng        Enthalpy        Volume    
         0   300            722160.12     -240429.19      10.147275     -242852.78      116307.96      791453.12    
      1000   320.66822     -83.684378     -302974.22      7.2342762     -305564.78     -303032.21      1110144.6    
      2000   317.00549      102.90771     -303777.88      7.2333663     -306338.85     -303706.57      1110284.2    
      3000   330.96197     -41.880713     -304010.15      7.2282033     -306683.87     -304039.2       1111077.3    
      4000   340.08293      19.967947     -304181.7       7.2272071     -306929.1      -304167.85      1111230.5    
      5000   350.15594     -85.587267     -304255.17      7.2243087     -307083.95     -304314.56      1111676.3    
      6000   357.36858      109.08046     -304339.04      7.2240277     -307226.09     -304263.35      1111719.5    
      7000   369.67745      38.090841     -304323.05      7.221209      -307309.53     -304296.6       1112153.5    
      8000   377.69389      63.028208     -304366.25      7.2205098     -307417.5      -304322.5       1112261.2    
      9000   391.85827     -119.90706     -304309.94      7.2168472     -307475.62     -304393.23      1112825.7    
     10000   401.04447      43.104044     -304270.13      7.2163166     -307510.02     -304240.18      1112907.5    
     11000   412.28273      34.08333      -304192.19      7.2146729     -307522.87     -304168.51      1113161      
     12000   417.3586       163.67219     -304153.31      7.2139039     -307524.99     -304039.58      1113279.7    
     13000   428.69865      48.888743     -304066.02      7.2122051     -307529.32     -304032.05      1113541.9    
     14000   440.40279     -166.98911     -303953.62      7.208245      -307511.47     -304069.75      1114153.7    
     15000   449.39707     -309.38565     -303895.34      7.2058393     -307525.85     -304110.55      1114525.7    
     16000   459.71038     -346.18808     -303785.51      7.2037259     -307499.34     -304026.4       1114852.6    
     17000   469.13814     -274.93068     -303698.98      7.2028032     -307488.98     -303890.31      1114995.4    
     18000   483.78666     -128.05585     -303568.98      7.2019823     -307477.32     -303658.11      1115122.5    
     19000   489.26059      51.628736     -303478.97      7.2010131     -307431.53     -303443.03      1115272.6    
     20000   498.56023      13.047284     -303382.24      7.1991199     -307409.92     -303373.16      1115565.9    
     21000   512.78616     -293.67066     -303246.4       7.1959079     -307389.01     -303450.97      1116063.9    
     22000   518.64843     -501.37874     -303149.2       7.1927538     -307339.17     -303498.61      1116553.3    
     23000   529.90493     -341.62859     -302982.69      7.1895213     -307263.6      -303220.88      1117055.3    
     24000   536.0319      -189.75772     -302929.94      7.1902105     -307260.34     -303062.23      1116948.2    
     25000   549.927        178.29429     -302770.75      7.1913392     -307213.41     -302646.47      1116772.9    
     26000   559.08812      196.35646     -302667.52      7.1898397     -307184.19     -302530.62      1117005.8    
     27000   572.96914     -32.080749     -302534.82      7.186718      -307163.63     -302557.2       1117491      
     28000   580.1434      -110.04734     -302416         7.1851582     -307102.77     -302492.78      1117733.6    
     29000   592.42834     -97.189646     -302275.91      7.1829298     -307061.92     -302343.73      1118080.4    
     30000   600.79499     -369.02098     -302118.44      7.1791862     -306972.04     -302376.1       1118663.4    
     31000   610.74581     -275.52329     -302010.94      7.1776356     -306944.93     -302203.35      1118905      
     32000   619.37316      184.87395     -301860.28      7.1782106     -306863.97     -301731.18      1118815.4    
     33000   630.96156      673.07017     -301721.39      7.1795903     -306818.69     -301251.47      1118600.4    
     34000   641.99869      92.679371     -301572.84      7.1735231     -306759.31     -301508.08      1119546.5    
     35000   645.24972      385.30763     -301464.27      7.1742612     -306677.01     -301195.06      1119431.3    
     36000   663.03594      347.0536      -301290.69      7.172441      -306647.12     -301048.15      1119715.4    
     37000   670.03456      153.78912     -301164.56      7.1684922     -306577.52     -301057.02      1120332.2    
     38000   678.03588     -15.119478     -301019.88      7.1655648     -306497.48     -301030.45      1120789.9    
     39000   689.39738     -28.941023     -300864.42      7.1622901     -306433.81     -300884.68      1121302.3    
     40000   704.37426      331.06625     -300713.37      7.1640832     -306403.74     -300481.72      1121021.7    
     41000   708.69931      415.42366     -300575.8       7.1621107     -306301.12     -300285.05      1121330.4    
     42000   722.11628      315.15811     -300423.24      7.1601634     -306256.95     -300202.61      1121635.4    
     43000   728.54213     -21.87488      -300319.7       7.1568698     -306205.32     -300335.02      1122151.6    
     44000   740.24394      100.53877     -300145.61      7.1555527     -306125.77     -300075.18      1122358.1    
     45000   751.06138      99.678516     -299952.06      7.1516821     -306019.61     -299882.2       1122965.6    
     46000   754.28832      111.81004     -299889.55      7.1510447     -305983.17     -299811.18      1123065.7    
     47000   768.20816     -596.28119     -299686.58      7.1442553     -305892.65     -300104.95      1124132.9    
     48000   779.92413      22.948806     -299512.33      7.1452712     -305813.04     -299496.23      1123973.1    
     49000   789.83205     -784.97612     -299399.4       7.138716      -305780.16     -299950.59      1125005.2    
     50000   796.40884      5.6781491     -299254.46      7.1415578     -305688.35     -299250.47      1124557.5    
     51000   810.33187     -129.4685      -299120.69      7.139351      -305667.06     -299211.59      1124905.2    
     52000   817.832       -71.92376      -298982.5       7.1377479     -305589.46     -299033.01      1125157.8    
     53000   829.36016     -285.97995     -298767.19      7.1316212     -305467.28     -298968.19      1126124.4    
     54000   839.78169     -520.34413     -298626.8       7.1293641     -305411.09     -298992.65      1126480.9    
     55000   853.88681     -303.83996     -298430.4       7.1286375     -305328.63     -298644.05      1126595.7    
     56000   862.24743     -76.432456     -298277.22      7.1270553     -305242.99     -298330.97      1126845.9    
     57000   870.90161     -100.85112     -298159.91      7.1258933     -305195.6      -298230.85      1127029.6    
     58000   881.22117      20.37405      -297962.18      7.1229559     -305081.24     -297947.84      1127494.4    
     59000   889.84        -531.70995     -297817.49      7.1172569     -305006.18     -298191.97      1128397.2    
     60000   903.94305     -471.23356     -297616.39      7.1143042     -304919.01     -297948.41      1128865.5    
     61000   901.08532     -355.79612     -297607.65      7.1159465     -304887.18     -297858.28      1128605      
     62000   921.04131      140.47804     -297400.62      7.1172914     -304841.37     -297301.68      1128391.7    
     63000   927.67596     -488.70681     -297168.58      7.1084632     -304662.93     -297513.2       1129793.1    
     64000   942.10491     -566.00373     -297068.72      7.1075931     -304679.64     -297467.89      1129931.4    
     65000   950.9559      -163.14863     -296877.74      7.1068053     -304560.16     -296992.81      1130056.7    
     66000   960.69432      447.97382     -296739.81      7.1097738     -304500.91     -296423.98      1129584.8    
     67000   964.87153      314.3109      -296607.15      7.1062152     -304401.99     -296385.44      1130150.5    
     68000   979.87859     -244.38524     -296368.43      7.0992043     -304284.51     -296540.99      1131266.6    
     69000   987.48106     -415.21219     -296253.02      7.0957561     -304230.52     -296546.34      1131816.3    
     70000   1003.7407      61.070296     -296081.42      7.0978163     -304190.27     -296038.29      1131487.8    
     71000   1011.6952     -13.669932     -295914.71      7.0944324     -304087.82     -295924.36      1132027.5    
     72000   1026.941       551.39835     -295724.97      7.0958098     -304021.24     -295335.45      1131807.8    
     73000   1033.3624     -73.676405     -295574.58      7.0890746     -303922.74     -295626.68      1132883.1    
     74000   1039.2324      301.71911     -295414.52      7.0881873     -303810.09     -295201.15      1133024.9    
     75000   1051.1765      406.12217     -295288.93      7.088536      -303781        -295001.75      1132969.2    
     76000   1063.0861      515.02544     -295056.06      7.085669      -303644.33     -294691.71      1133427.6    
     77000   1064.6439      487.0032      -295035.29      7.0849144     -303636.15     -294690.73      1133548.3    
     78000   1079.8102      104.30718     -294771.03      7.0789121     -303494.41     -294697.17      1134509.5    
     79000   1084.3055     -20.926039     -294607.21      7.0746797     -303366.91     -294622.04      1135188.2    
     80000   1101.2997     -854.24649     -294420.23      7.0669179     -303317.22     -295026.15      1136435      
     81000   1106.0737     -538.32106     -294276.4       7.0668182     -303211.96     -294658.24      1136451      
     82000   1116.2326      192.36688     -294126.05      7.0701317     -303143.68     -293989.67      1135918.4    
     83000   1136.4967     -340.64352     -293851.88      7.0612929     -303033.22     -294093.69      1137340.3    
     84000   1140.238      -629.51693     -293743.18      7.0587953     -302954.74     -294190.22      1137742.7    
     85000   1150.6889     -112.49475     -293539.56      7.0586031     -302835.55     -293619.45      1137773.7    
     86000   1156.7257      495.01024     -293434.4       7.0611682     -302779.16     -293083         1137360.3    
     87000   1169.6668     -60.511755     -293278.12      7.055781      -302727.42     -293321.11      1138228.7    
     88000   1179.8691     -275.84503     -293071.61      7.051686      -302603.33     -293267.69      1138889.7    
     89000   1183.1558     -235.72302     -292933.36      7.0488364     -302491.64     -293100.99      1139350.1    
     90000   1202.145      -181.40705     -292654.89      7.045144      -302366.57     -292783.96      1139947.3    
     91000   1208.8769     -376.38816     -292478.32      7.0398569     -302244.39     -292746.32      1140803.4    
     92000   1228.3313     -827.84337     -292227.83      7.0351053     -302151.06     -292817.68      1141573.9    
     93000   1227.6475      55.022205     -292097.64      7.0377528     -302015.35     -292058.45      1141144.5    
     94000   1231.6621      408.64827     -292039.68      7.0398271     -301989.82     -291748.71      1140808.2    
     95000   1242.011       112.22647     -291850.45      7.0338297     -301884.2      -291770.48      1141780.9    
     96000   1251.0466      137.26734     -291633.98      7.0311238     -301740.72     -291536.12      1142220.3    
     97000   1265.776       2.8249949     -291426.58      7.0278182     -301652.31     -291424.56      1142757.6    
     98000   1281.7502      132.05082     -291203.83      7.0257134     -301558.62     -291109.62      1143100      
     99000   1289.5781     -865.45307     -290965.37      7.0151121     -301383.39     -291583.77      1144827.4    
    100000   1301.0747     -749.11605     -290752.95      7.0128143     -301263.85     -291288.4       1145202.5    
    101000   1313.6001      497.61188     -290540.19      7.017527      -301152.28     -290184.75      1144433.5    
    102000   1311.2517     -647.63328     -290510.88      7.0087136     -301103.99     -290974.06      1145872.6    
    103000   1328.8833      129.90048     -290214.44      7.0108554     -300949.99     -290121.56      1145522.5    
    104000   1335.2951     -209.01665     -290035.6       7.0051512     -300822.95     -290185.16      1146455.3    
    105000   1341.7004     -474.4312      -289848.68      6.9995237     -300687.78     -290188.44      1147377      
    106000   1352.8508     -301.80444     -289798.5       7.0004917     -300727.68     -290014.6       1147218.4    
    107000   1375.3613      32.644042     -289427.61      6.9968693     -300538.64     -289404.22      1147812.3    
    108000   1380.0281      346.20929     -289196.3       6.9949805     -300345.03     -288948.2       1148122.2    
    109000   1389.3226      271.57791     -289051.24      6.9925883     -300275.07     -288856.56      1148515      
    110000   1392.0485      747.36789     -288853.32      6.9916443     -300099.16     -288317.5       1148670.1    
    111000   1406.243       365.18601     -288690.67      6.9882136     -300051.19     -288428.72      1149234      
    112000   1413.8039      40.529716     -288424.99      6.9814896     -299846.59     -288395.89      1150340.8    
    113000   1440.1632     -505.22015     -288058.27      6.9727693     -299692.81     -288421.46      1151779.5    
    114000   1439.6504     -285.08528     -287889.12      6.9694627     -299519.52     -288094.16      1152326      
    115000   1452.0107      454.94263     -287636.58      6.9695725     -299366.84     -287309.38      1152307.8    
    116000   1457.612       266.42758     -287488.42      6.9666123     -299263.92     -287296.72      1152797.4    
    117000   1465.9743      63.20993      -287352.31      6.9642459     -299195.37     -287306.82      1153189.1    
    118000   1471.8755     -704.2036      -287118.12      6.9538169     -299008.86     -287625.74      1154918.6    
    119000   1489.2         278.53935     -286901.84      6.9587763     -298932.54     -286701.2       1154095.5    
    120000   1498.6112      123.85187     -286607.41      6.9504451     -298714.13     -286518.09      1155478.9    
    121000   1499.1546      103.25872     -286479.01      6.9482974     -298590.12     -286404.51      1155836.1    
    122000   1514.7224     -64.088849     -286239.97      6.9421811     -298476.85     -286286.24      1156854.4    
    123000   1526.5277     -248.53935     -285867.31      6.9349197     -298199.56     -286046.96      1158065.7    
    124000   1532.8097      170.52854     -285775.37      6.9370864     -298158.37     -285652.15      1157704      
    125000   1554.3565     -84.312167     -285423.91      6.9298243     -297980.98     -285484.89      1158917.2    
    126000   1556.575      -456.30318     -285155.87      6.9219634     -297730.87     -285486.31      1160233.3    
    127000   1565.8843     -184.95839     -285006.96      6.9210606     -297657.16     -285140.92      1160384.7    
    128000   1580.299      -67.093443     -284638.72      6.9157531     -297405.37     -284687.35      1161275.2    
    129000   1582.229      -217.43023     -284596.72      6.9139369     -297378.96     -284754.36      1161580.3    
    130000   1601.4755      273.64407     -284327.81      6.9132428     -297265.53     -284129.39      1161696.9    
    131000   1608.9597      198.6878      -284012.08      6.9061158     -297010.27     -283867.87      1162895.8    
    132000   1627.9235     -138.91152     -283709.12      6.8993612     -296860.52     -283810.05      1164034.3    
    133000   1629.1155      53.099486     -283410.65      6.895371      -296571.67     -283372.05      1164707.8    
    134000   1644.7589     -735.8647      -283278.47      6.8898743     -296565.87     -283813.84      1165637      
    135000   1658.0074      263.38027     -282924.07      6.888984      -296318.5      -282732.43      1165787.7    
    136000   1663.1528      306.29986     -282672.57      6.8847334     -296108.57     -282449.56      1166507.4    
    137000   1665.3922      498.15764     -282574.72      6.8841038     -296028.81     -282211.99      1166614.1    
    138000   1671.3817     -27.985535     -282221.79      6.8727407     -295724.26     -282242.2       1168543      
    139000   1685.9542      86.822822     -281958.73      6.8687147     -295578.93     -281895.37      1169227.9    
    140000   1691.2016      144.12884     -281852.66      6.8677371     -295515.25     -281747.46      1169394.3    
    141000   1719.3656      297.91408     -281549.73      6.866989      -295439.85     -281332.26      1169521.7    
    142000   1715.3365      581.01201     -281249.8       6.8617521     -295107.37     -280825.36      1170414.3    
    143000   1723.5939      235.10498     -281053.31      6.8545644     -294977.59     -280881.38      1171641.6    
    144000   1738.1189     -959.6566      -280877.24      6.8448475     -294918.85     -281580.01      1173304.8    
    145000   1752.8094      347.2797      -280515.08      6.8470022     -294675.38     -280260.84      1172935.6    
    146000   1747.3438     -21.687652     -280376.9       6.8393876     -294493.04     -280392.8       1174241.5    
    147000   1771.4359      449.83488     -280157.53      6.8416316     -294468.31     -279827.95      1173856.4    
    148000   1786.2919      155.75907     -279807.37      6.8330736     -294238.16     -279693.11      1175326.5    
    149000   1791.598      -275.36267     -279581.86      6.8261892     -294055.52     -279784.07      1176511.9    
    150000   1794.5196     -992.06984     -279310.79      6.8156397     -293808.05     -280040.42      1178332.9    
    151000   1808.5675      552.19543     -279047         6.8225429     -293657.74     -278641.29      1177140.7    
    152000   1818.4083     -373.97119     -278830.88      6.8116562     -293521.13     -279106.08      1179022      
    153000   1834.7599      253.40696     -278582.26      6.813138      -293404.6      -278395.82      1178765.6    
    154000   1835.7078     -190.1848      -278381.89      6.8036833     -293211.89     -278522         1180403.7    
    155000   1849.9025      168.85099     -278173         6.8036875     -293117.68     -278048.6       1180402.9    
    156000   1857.4743     -213.30607     -277961.09      6.7965888     -292966.94     -278118.41      1181635.8    
    157000   1867.049       258.24045     -277728.28      6.7976199     -292811.48     -277537.85      1181456.6    
    158000   1869.6136     -424.00337     -277574.18      6.7880045     -292678.1      -277887.29      1183130.1    
    159000   1889.1236      234.02279     -277310.93      6.7895862     -292572.46     -277138.16      1182854.5    
    160000   1898.0807      286.55158     -277097.06      6.7870588     -292430.95     -276885.42      1183295      
    161000   1910.9639      166.48275     -276675.23      6.7778388     -292113.2      -276552.11      1184904.7    
    162000   1910.9083      346.22289     -276617.16      6.7778686     -292054.68     -276361.11      1184899.4    
    163000   1928.8787      183.62297     -276292         6.7690718     -291874.7      -276156.03      1186439.3    
    164000   1940.443      -799.70424     -275944.72      6.7564067     -291620.84     -276538.02      1188663.3    
    165000   1947.5414     -285.05501     -275871.24      6.7608062     -291604.7      -276082.59      1187889.8    
    166000   1958.5731     -679.48303     -275566.29      6.7513407     -291388.87     -276070.78      1189555.2    
    167000   1972.221      -302.56551     -275321.64      6.7506557     -291254.48     -275546.3       1189675.9    
    168000   1983.0811      750.71499     -275075.71      6.752903      -291096.28     -274518.46      1189280      
    169000   1993.3226      325.24826     -274876.11      6.746286      -290979.43     -274634.45      1190446.5    
    170000   1999.6002      152.06364     -274613.08      6.7400701     -290767.11     -274499.99      1191544.4    
    171000   2008.5965      554.37419     -274453.58      6.7391792     -290680.29     -274041.24      1191701.9    
    172000   2028.0461      126.70287     -274129.59      6.7319528     -290513.43     -274035.25      1192981.1    
    173000   2026.0887      326.01948     -274208.57      6.7349229     -290576.6      -273965.93      1192455      
    174000   2038.0241     -209.73253     -273804.75      6.7229158     -290269.19     -273961.13      1194584.7    
    175000   2053.8194     -104.78852     -273606.23      6.7221172     -290198.27     -273684.37      1194726.7    
    176000   2051.7719      1493.2013     -273346.37      6.7260269     -289921.88     -272233.55      1194032.2    
    177000   2062.0974      331.03981     -273102.38      6.7140303     -289761.3      -272855.23      1196165.7    
    178000   2079.153      -171.23822     -272908.84      6.707188      -289705.55     -273036.82      1197386      
    179000   2081.1857     -293.07942     -272663.94      6.7034111     -289477.07     -272883.09      1198060.6    
    180000   2094.5653     -30.769944     -272440.78      6.7001495     -289361.99     -272463.8       1198643.8    
    181000   2105.9042     -38.843034     -272206.64      6.6964971     -289219.46     -272235.71      1199297.6    
    182000   2118.7505     -561.90189     -271873.4       6.6857844     -288990        -272294.69      1201219.2    
    183000   2145.1164      658.03516     -271700.87      6.6930335     -289030.47     -271208.05      1199918.2    
    184000   2126.6546     -220.99174     -271460.25      6.6797336     -288640.7      -271626.08      1202307.3    
    185000   2144.1426     -102.13697     -271280.11      6.6789978     -288601.84     -271356.76      1202439.8    
    186000   2138.1003     -139.65152     -271119.23      6.6738499     -288392.15     -271224.12      1203367.3    
    187000   2175.0198     -707.80347     -270700.92      6.6630581     -288272.1      -271233.4       1205316.3    
    188000   2187.4416     -736.48019     -270451.2       6.6589891     -288122.73     -271005.59      1206052.8    
    189000   2186.2571      19.283892     -270215.97      6.6609744     -287877.93     -270201.46      1205693.4    
    190000   2199.3926     -353.63285     -270042.15      6.6537392     -287810.23     -270308.56      1207004.4    
    191000   2202.2932      586.49739     -269957.24      6.6599701     -287748.75     -269515.81      1205875.2    
    192000   2230.0017     -248.30646     -269713.12      6.6514466     -287728.48     -269900.25      1207420.5    
    193000   2226.868      -256.88944     -269423.86      6.6428783     -287413.9      -269617.7       1208977.9    
    194000   2241.0623     -444.97766     -269220.83      6.6370325     -287325.54     -269556.9       1210042.7    
    195000   2241.0257      844.08739     -268867.57      6.6390989     -286971.99     -268230.27      1209666.1    
    196000   2253.2421     -427.55194     -268716.63      6.6264549     -286919.74     -269040.06      1211974.2    
    197000   2268.9042      1009.7931     -268529.06      6.6390475     -286858.7      -267766.65      1209675.4    
    198000   2268.5468     -484.5421      -268437.25      6.6223396     -286764        -268804.01      1212727.4    
    199000   2273.4705      239.95705     -268275.24      6.6249797     -286641.77     -268093.69      1212244.1    
    200000   2295.5663      727.50738     -267943.91      6.6236182     -286488.94     -267393.35      1212493.3    
    201000   2324.5065     -242.06129     -267522.86      6.6110493     -286301.68     -267706.39      1214798.5    
    202000   2331.2056      259.20399     -267268.06      6.6082129     -286101.01     -267071.45      1215319.9    
    203000   2329.8669     -679.91876     -267216.51      6.5993864     -286038.65     -267732.95      1216945.4    
    204000   2341.6172      126.95825     -266820.17      6.5972272     -285737.23     -266723.71      1217343.7    
    205000   2361.5348     -173.52447     -266667.57      6.593323      -285745.53     -266799.49      1218064.5    
    206000   2368.9165     -776.64268     -266473.08      6.587875      -285610.67     -267064.01      1219071.8    
    207000   2367.0684      582.64702     -266371.65      6.5937623     -285494.32     -265928.72      1217983.3    
    208000   2375.8136      458.51707     -266045.51      6.588684      -285238.83     -265696.68      1218922.1    
    209000   2382.1344     -346.38776     -265800.19      6.5752506     -285044.58     -266064.26      1221412.4    
    210000   2393.1679      232.06619     -265685.19      6.5782164     -285018.71     -265508.36      1220861.7    
    211000   2413.4598      201.08103     -265381.47      6.573173      -284878.92     -265228.13      1221798.5    
    212000   2429.4577      146.0128      -265104.59      6.5690213     -284731.28     -264993.17      1222570.7    
    213000   2443.9967      17.785015     -264868.13      6.5624417     -284612.28     -264854.55      1223796.4    
    214000   2424.968      -356.4792      -264883.63      6.5580286     -284474.05     -265156.11      1224620      
    215000   2459.7843     -279.12565     -264390.69      6.5522671     -284262.37     -264604.22      1225696.8    
    216000   2457.5052      84.441112     -264267.03      6.55125       -284120.3      -264202.42      1225887.1    
    217000   2469.0234     -249.68916     -264171.96      6.5465702     -284118.28     -264363.14      1226763.4    
    218000   2469.1835      308.91966     -263907.8       6.5453145     -283855.41     -263671.21      1226998.7    
    219000   2475.0071     -231.54446     -263731.23      6.5357748     -283725.9      -263908.82      1228789.7    
    220000   2512.7488      538.20983     -263341.25      6.5383349     -283640.82     -262928.63      1228308.6    
Loop time of 4194.38 on 36 procs for 220000 steps with 62500 atoms

Performance: 4.532 ns/day, 5.296 hours/ns, 52.451 timesteps/s, 3.278 Matom-step/s
99.6% CPU use with 36 MPI tasks x no OpenMP threads

MPI task timing breakdown:
Section |  min time  |  avg time  |  max time  |%varavg| %total
---------------------------------------------------------------
Pair    | 3973.7     | 4001.7     | 4024.5     |  21.1 | 95.41
Neigh   | 99.946     | 102.9      | 104.66     |  11.2 |  2.45
Comm    | 32.755     | 58.365     | 87.165     | 183.8 |  1.39
Output  | 0.022797   | 0.0234     | 0.04172    |   2.0 |  0.00
Modify  | 24.299     | 25.349     | 27.136     |  19.8 |  0.60
Other   |            | 6.032      |            |       |  0.14

Nlocal:        1736.11 ave        1784 max        1710 min
Histogram: 5 7 4 5 4 7 1 1 1 1
Nghost:        2337.92 ave        2366 max        2310 min
Histogram: 1 4 4 3 8 2 5 4 2 3
Neighs:        26599.4 ave       27860 max       25947 min
Histogram: 7 6 6 3 2 7 1 1 2 1
FullNghs:      53198.9 ave       55733 max       51961 min
Histogram: 10 4 7 1 4 6 1 0 2 1

Total # of neighbors = 1915160
Ave neighs/atom = 30.64256
Neighbor list builds = 28678
Dangerous builds = 0
unfix NPT
unfix OUT1

# 2) 냉각 2500 -> 300 K @ 10^12 K/s, 10 K 세그먼트당 10 ps, 재평형 0.0 ps
fix OUT2 all ave/time 1000 1 1000 v_vT v_rho v_ent file tg_cooling.dat

variable dTseg      equal 10
variable seg_steps  equal 10000
variable eq_steps   equal 0
variable nseg       equal floor((2500-300)/${dTseg})
variable nseg       equal floor((2500-300)/10)

variable i loop ${nseg}
variable i loop 220
label loop_cool
  variable Tstart equal 2500 - (${i}-1)*${dTseg}
  variable Tstart equal 2500 - (1-1)*${dTseg}
  variable Tstart equal 2500 - (1-1)*10
  variable Tstop  equal 2500 - (${i})*${dTseg}
  variable Tstop  equal 2500 - (1)*${dTseg}
  variable Tstop  equal 2500 - (1)*10

  fix NPT all npt temp ${Tstart} ${Tstop} ${Tdamp} iso ${Ptarget} ${Ptarget} ${Pdamp}
  fix NPT all npt temp 2500 ${Tstop} ${Tdamp} iso ${Ptarget} ${Ptarget} ${Pdamp}
  fix NPT all npt temp 2500 2490 ${Tdamp} iso ${Ptarget} ${Ptarget} ${Pdamp}
  fix NPT all npt temp 2500 2490 0.1 iso ${Ptarget} ${Ptarget} ${Pdamp}
  fix NPT all npt temp 2500 2490 0.1 iso 0 ${Ptarget} ${Pdamp}
  fix NPT all npt temp 2500 2490 0.1 iso 0 0 ${Pdamp}
  fix NPT all npt temp 2500 2490 0.1 iso 0 0 1
  run ${seg_steps}
  run 10000
Per MPI rank memory allocation (min/avg/max) = 10.16 | 10.32 | 10.72 Mbytes
   Step          Temp          Press          TotEng        Density         PotEng        Enthalpy        Volume    
    220000   2512.7488      538.20983     -263341.25      6.5383349     -283640.82     -262928.63      1228308.6    
    221000   2500.2252      306.22588     -263384.73      6.5361615     -283583.12     -263149.88      1228717      
    222000   2504.7077     -466.15267     -263403.3       6.5320584     -283637.91     -263761.02      1229488.8    
    223000   2503.221      -65.591551     -263337.03      6.533192      -283559.62     -263387.35      1229275.5    
    224000   2490.5442      495.71165     -263540.93      6.5395357     -283661.12     -263160.96      1228083      
    225000   2500.4942     -383.30229     -263423.28      6.5311132     -283623.85     -263717.47      1229666.7    
    226000   2505.64        57.081962     -263522.84      6.5395781     -283764.98     -263479.09      1228075      
    227000   2497.1396      313.16175     -263583.17      6.5411666     -283756.64     -263343.19      1227776.8    
    228000   2503.4449      306.43303     -263574.31      6.5406078     -283798.71     -263339.46      1227881.7    
    229000   2487.1462      616.5567      -263607.23      6.5419622     -283699.97     -263134.81      1227627.5    
    230000   2501.3807     -374.1577      -263648.79      6.5387452     -283856.52     -263935.62      1228231.5    
Loop time of 187.608 on 36 procs for 10000 steps with 62500 atoms

Performance: 4.605 ns/day, 5.211 hours/ns, 53.303 timesteps/s, 3.331 Matom-step/s
99.6% CPU use with 36 MPI tasks x no OpenMP threads

MPI task timing breakdown:
Section |  min time  |  avg time  |  max time  |%varavg| %total
---------------------------------------------------------------
Pair    | 176.2      | 177.22     | 178.15     |   3.8 | 94.47
Neigh   | 6.2012     | 6.3106     | 6.4324     |   2.2 |  3.36
Comm    | 1.5986     | 2.6312     | 3.6657     |  32.8 |  1.40
Output  | 0.0010744  | 0.0011013  | 0.0018738  |   0.4 |  0.00
Modify  | 1.0735     | 1.1575     | 1.2128     |   4.6 |  0.62
Other   |            | 0.2835     |            |       |  0.15

Nlocal:        1736.11 ave        1772 max        1702 min
Histogram: 1 2 4 2 11 6 4 3 1 2
Nghost:        2341.25 ave        2391 max        2299 min
Histogram: 3 3 0 5 8 11 4 1 0 1
Neighs:        26585.5 ave       27633 max       25625 min
Histogram: 1 3 2 6 10 3 7 1 2 1
FullNghs:      53170.9 ave       55253 max       51328 min
Histogram: 1 4 1 5 12 3 6 2 0 2

Total # of neighbors = 1914154
Ave neighs/atom = 30.626464
Neighbor list builds = 1718
Dangerous builds = 0
  unfix NPT

  if "${eq_steps} > 0" then   "fix NPT all npt temp ${Tstop} ${Tstop} ${Tdamp} iso ${Ptarget} ${Ptarget} ${Pdamp}; run ${eq_steps}; unfix NPT"

  next i
jump lammps_script loop_cool
  variable Tstart equal 2500 - (${i}-1)*${dTseg}
  variable Tstart equal 2500 - (2-1)*${dTseg}
  variable Tstart equal 2500 - (2-1)*10
  variable Tstop  equal 2500 - (${i})*${dTseg}
  variable Tstop  equal 2500 - (2)*${dTseg}
  variable Tstop  equal 2500 - (2)*10

  fix NPT all npt temp ${Tstart} ${Tstop} ${Tdamp} iso ${Ptarget} ${Ptarget} ${Pdamp}
  fix NPT all npt temp 2490 ${Tstop} ${Tdamp} iso ${Ptarget} ${Ptarget} ${Pdamp}
  fix NPT all npt temp 2490 2480 ${Tdamp} iso ${Ptarget} ${Ptarget} ${Pdamp}
  fix NPT all npt temp 2490 2480 0.1 iso ${Ptarget} ${Ptarget} ${Pdamp}
  fix NPT all npt temp 2490 2480 0.1 iso 0 ${Ptarget} ${Pdamp}
  fix NPT all npt temp 2490 2480 0.1 iso 0 0 ${Pdamp}
  fix NPT all npt temp 2490 2480 0.1 iso 0 0 1
  run ${seg_steps}
  run 10000
Per MPI rank memory allocation (min/avg/max) = 10.16 | 10.32 | 10.72 Mbytes
   Step          Temp          Press          TotEng        Density         PotEng        Enthalpy        Volume    
    230000   2501.3807     -374.1577      -263648.79      6.5387452     -283856.52     -263935.62      1228231.5    
    231000   2488.3247      605.36422     -263461.08      6.5393604     -283563.33     -262997.05      1228115.9    
    232000   2488.6061      564.4035      -263610.69      6.542258      -283715.22     -263178.25      1227572      
    233000   2496.48        245.07014     -263520.13      6.5388546     -283688.27     -263332.26      1228210.9    
    234000   2495.0271      383.30986     -263721.04      6.5438174     -283877.44     -263427.42      1227279.5    
    235000   2495.3676      125.85062     -263601.17      6.5390096     -283760.32     -263504.7       1228181.8    
    236000   2490.0293      810.6363      -263702.55      6.5467752     -283818.58     -263081.88      1226725      
    237000   2485.4387      22.926054     -263672.94      6.5388198     -283751.88     -263655.36      1228217.5    
    238000   2483.429      -532.20179     -263767.08      6.5358694     -283829.78     -264175.25      1228771.9    
    239000   2473.4113      240.15608     -263956.09      6.546602      -283937.87     -263772.21      1226757.4    
    240000   2482.6602      630.30431     -263982.03      6.5503313     -284038.52     -263499.69      1226059      
Loop time of 187.881 on 36 procs for 10000 steps with 62500 atoms

Performance: 4.599 ns/day, 5.219 hours/ns, 53.225 timesteps/s, 3.327 Matom-step/s
99.6% CPU use with 36 MPI tasks x no OpenMP threads

MPI task timing breakdown:
Section |  min time  |  avg time  |  max time  |%varavg| %total
---------------------------------------------------------------
Pair    | 176.31     | 177.47     | 178.59     |   3.7 | 94.46
Neigh   | 6.1515     | 6.2846     | 6.4202     |   2.2 |  3.34
Comm    | 1.5582     | 2.6884     | 4.0246     |  32.1 |  1.43
Output  | 0.0010562  | 0.0010823  | 0.0018773  |   0.4 |  0.00
Modify  | 1.0756     | 1.1544     | 1.2365     |   6.2 |  0.61
Other   |            | 0.2826     |            |       |  0.15

Nlocal:        1736.11 ave        1776 max        1689 min
Histogram: 1 0 2 3 9 9 6 4 0 2
Nghost:        2346.17 ave        2382 max        2324 min
Histogram: 3 6 7 7 3 3 4 0 0 3
Neighs:        26652.7 ave       27886 max       25667 min
Histogram: 1 2 3 11 7 5 4 1 1 1
FullNghs:      53305.4 ave       55793 max       51409 min
Histogram: 1 2 3 12 7 5 4 0 0 2

Total # of neighbors = 1918994
Ave neighs/atom = 30.703904
Neighbor list builds = 1709
Dangerous builds = 0
  unfix NPT

  if "${eq_steps} > 0" then   "fix NPT all npt temp ${Tstop} ${Tstop} ${Tdamp} iso ${Ptarget} ${Ptarget} ${Pdamp}; run ${eq_steps}; unfix NPT"

  next i
jump lammps_script loop_cool
  variable Tstart equal 2500 - (${i}-1)*${dTseg}
  variable Tstart equal 2500 - (3-1)*${dTseg}
  variable Tstart equal 2500 - (3-1)*10
  variable Tstop  equal 2500 - (${i})*${dTseg}
  variable Tstop  equal 2500 - (3)*${dTseg}
  variable Tstop  equal 2500 - (3)*10

  fix NPT all npt temp ${Tstart} ${Tstop} ${Tdamp} iso ${Ptarget} ${Ptarget} ${Pdamp}
  fix NPT all npt temp 2480 ${Tstop} ${Tdamp} iso ${Ptarget} ${Ptarget} ${Pdamp}
  fix NPT all npt temp 2480 2470 ${Tdamp} iso ${Ptarget} ${Ptarget} ${Pdamp}
  fix NPT all npt temp 2480 2470 0.1 iso ${Ptarget} ${Ptarget} ${Pdamp}
  fix NPT all npt temp 2480 2470 0.1 iso 0 ${Ptarget} ${Pdamp}
  fix NPT all npt temp 2480 2470 0.1 iso 0 0 ${Pdamp}
  fix NPT all npt temp 2480 2470 0.1 iso 0 0 1
  run ${seg_steps}
  run 10000
Per MPI rank memory allocation (min/avg/max) = 10.16 | 10.32 | 10.72 Mbytes
   Step          Temp          Press          TotEng        Density         PotEng        Enthalpy        Volume    
    240000   2482.6602      630.30431     -263982.03      6.5503313     -284038.52     -263499.69      1226059      
    241000   2483.4018     -236.53766     -263865.62      6.541142      -283928.11     -264046.89      1227781.4    
    242000   2468.5672     -291.75956     -263855.33      6.5389182     -283797.98     -264078.99      1228199      
    243000   2478.9539     -124.43518     -263879.97      6.5415431     -283906.52     -263975.32      1227706.1    
    244000   2486.1549      468.61871     -263851.52      6.546862      -283936.24     -263492.72      1226708.7    
    245000   2475.8824      462.41027     -263997.82      6.5466711     -283999.56     -263643.77      1226744.5    
    246000   2480.9125      150.15839     -264013.06      6.5460397     -284055.43     -263898.07      1226862.8    
    247000   2468.2904      532.48011     -263948.25      6.545329      -283888.66     -263540.46      1226996      
    248000   2473.1817     -112.09655     -264049.62      6.5479837     -284029.53     -264135.43      1226498.6    
    249000   2470.0327      718.15379     -264287.55      6.557695      -284242.03     -263738.61      1224682.3    
    250000   2474.2508      164.69065     -264088.15      6.5503688     -284076.7      -263962.12      1226052      
Loop time of 188.205 on 36 procs for 10000 steps with 62500 atoms

Performance: 4.591 ns/day, 5.228 hours/ns, 53.134 timesteps/s, 3.321 Matom-step/s
99.6% CPU use with 36 MPI tasks x no OpenMP threads

MPI task timing breakdown:
Section |  min time  |  avg time  |  max time  |%varavg| %total
---------------------------------------------------------------
Pair    | 176.35     | 177.68     | 178.88     |   4.1 | 94.41
Neigh   | 6.1807     | 6.2974     | 6.4616     |   2.3 |  3.35
Comm    | 1.4738     | 2.7854     | 4.2795     |  35.2 |  1.48
Output  | 0.0010476  | 0.0010741  | 0.0018744  |   0.4 |  0.00
Modify  | 1.0663     | 1.1612     | 1.2614     |   6.9 |  0.62
Other   |            | 0.2846     |            |       |  0.15

Nlocal:        1736.11 ave        1756 max        1708 min
Histogram: 1 2 4 3 2 4 5 8 3 4
Nghost:        2345.42 ave        2370 max        2304 min
Histogram: 1 2 0 1 6 4 8 8 0 6
Neighs:        26666.1 ave       27373 max       25774 min
Histogram: 1 3 2 1 7 4 6 6 5 1
FullNghs:      53332.3 ave       54796 max       51540 min
Histogram: 1 2 4 3 3 6 6 7 3 1

Total # of neighbors = 1919962
Ave neighs/atom = 30.719392
Neighbor list builds = 1711
Dangerous builds = 0
  unfix NPT

  if "${eq_steps} > 0" then   "fix NPT all npt temp ${Tstop} ${Tstop} ${Tdamp} iso ${Ptarget} ${Ptarget} ${Pdamp}; run ${eq_steps}; unfix NPT"

  next i
jump lammps_script loop_cool
  variable Tstart equal 2500 - (${i}-1)*${dTseg}
  variable Tstart equal 2500 - (4-1)*${dTseg}
  variable Tstart equal 2500 - (4-1)*10
  variable Tstop  equal 2500 - (${i})*${dTseg}
  variable Tstop  equal 2500 - (4)*${dTseg}
  variable Tstop  equal 2500 - (4)*10

  fix NPT all npt temp ${Tstart} ${Tstop} ${Tdamp} iso ${Ptarget} ${Ptarget} ${Pdamp}
  fix NPT all npt temp 2470 ${Tstop} ${Tdamp} iso ${Ptarget} ${Ptarget} ${Pdamp}
  fix NPT all npt temp 2470 2460 ${Tdamp} iso ${Ptarget} ${Ptarget} ${Pdamp}
  fix NPT all npt temp 2470 2460 0.1 iso ${Ptarget} ${Ptarget} ${Pdamp}
  fix NPT all npt temp 2470 2460 0.1 iso 0 ${Ptarget} ${Pdamp}
  fix NPT all npt temp 2470 2460 0.1 iso 0 0 ${Pdamp}
  fix NPT all npt temp 2470 2460 0.1 iso 0 0 1
  run ${seg_steps}
  run 10000
Per MPI rank memory allocation (min/avg/max) = 10.16 | 10.32 | 10.72 Mbytes
   Step          Temp          Press          TotEng        Density         PotEng        Enthalpy        Volume    
    250000   2474.2508      164.69065     -264088.15      6.5503688     -284076.7      -263962.12      1226052      
    251000   2474.8255     -713.97788     -263875.19      6.5380848     -283868.39     -264422.58      1228355.5    
    252000   2471.8339      151.61488     -263966.25      6.5455206     -283935.28     -263850.14      1226960.1    
    253000   2470.379       566.64431     -264165.93      6.552568      -284123.21     -263732.46      1225640.5    
    254000   2469.3374     -87.117516     -264127.09      6.5480373     -284075.95     -264193.78      1226488.5    
    255000   2469.4153      545.07747     -264040.51      6.5512056     -283990        -263623.45      1225895.4    
    256000   2466.0984      438.09921     -264168.26      6.5530876     -284090.96     -263833.15      1225543.3    
    257000   2465.3626     -406.39661     -264184.42      6.5463561     -284101.17     -264495.6       1226803.5    
    258000   2471.4364      64.299532     -264210.99      6.550506      -284176.81     -264161.78      1226026.3    
    259000   2456.0809     -181.56824     -264236.89      6.5473846     -284078.66     -264375.9       1226610.8    
    260000   2463.242      -232.88626     -264106.82      6.5448039     -284006.44     -264285.19      1227094.5    
Loop time of 188.095 on 36 procs for 10000 steps with 62500 atoms

Performance: 4.593 ns/day, 5.225 hours/ns, 53.165 timesteps/s, 3.323 Matom-step/s
99.6% CPU use with 36 MPI tasks x no OpenMP threads

MPI task timing breakdown:
Section |  min time  |  avg time  |  max time  |%varavg| %total
---------------------------------------------------------------
Pair    | 176.78     | 177.67     | 178.8      |   3.6 | 94.46
Neigh   | 6.1636     | 6.2886     | 6.4314     |   2.2 |  3.34
Comm    | 1.4872     | 2.6983     | 3.7471     |  31.3 |  1.43
Output  | 0.001004   | 0.0010316  | 0.0018646  |   0.4 |  0.00
Modify  | 1.0852     | 1.1576     | 1.2931     |   7.4 |  0.62
Other   |            | 0.2842     |            |       |  0.15

Nlocal:        1736.11 ave        1771 max        1710 min
Histogram: 2 4 6 5 6 6 4 1 0 2
Nghost:        2340.22 ave        2366 max        2305 min
Histogram: 2 1 5 4 3 4 3 2 6 6
Neighs:        26609.8 ave       27624 max       25828 min
Histogram: 1 2 5 6 10 7 3 1 0 1
FullNghs:      53219.6 ave       55324 max       51686 min
Histogram: 1 1 7 7 9 6 3 1 0 1

Total # of neighbors = 1915906
Ave neighs/atom = 30.654496
Neighbor list builds = 1707
Dangerous builds = 0
  unfix NPT

  if "${eq_steps} > 0" then   "fix NPT all npt temp ${Tstop} ${Tstop} ${Tdamp} iso ${Ptarget} ${Ptarget} ${Pdamp}; run ${eq_steps}; unfix NPT"

  next i
jump lammps_script loop_cool
  variable Tstart equal 2500 - (${i}-1)*${dTseg}
  variable Tstart equal 2500 - (5-1)*${dTseg}
  variable Tstart equal 2500 - (5-1)*10
  variable Tstop  equal 2500 - (${i})*${dTseg}
  variable Tstop  equal 2500 - (5)*${dTseg}
  variable Tstop  equal 2500 - (5)*10

  fix NPT all npt temp ${Tstart} ${Tstop} ${Tdamp} iso ${Ptarget} ${Ptarget} ${Pdamp}
  fix NPT all npt temp 2460 ${Tstop} ${Tdamp} iso ${Ptarget} ${Ptarget} ${Pdamp}
  fix NPT all npt temp 2460 2450 ${Tdamp} iso ${Ptarget} ${Ptarget} ${Pdamp}
  fix NPT all npt temp 2460 2450 0.1 iso ${Ptarget} ${Ptarget} ${Pdamp}
  fix NPT all npt temp 2460 2450 0.1 iso 0 ${Ptarget} ${Pdamp}
  fix NPT all npt temp 2460 2450 0.1 iso 0 0 ${Pdamp}
  fix NPT all npt temp 2460 2450 0.1 iso 0 0 1
  run ${seg_steps}
  run 10000
Per MPI rank memory allocation (min/avg/max) = 10.16 | 10.32 | 10.72 Mbytes
   Step          Temp          Press          TotEng        Density         PotEng        Enthalpy        Volume    
    260000   2463.242      -232.88626     -264106.82      6.5448039     -284006.44     -264285.19      1227094.5    
    261000   2443.3754      729.90703     -264389.54      6.5577699     -284128.67     -263831.62      1224668.3    
    262000   2466.8297      293.43068     -264308.99      6.5552447     -284237.6      -264084.61      1225140      
    263000   2473.4338     -5.6927129     -264206.28      6.5517491     -284188.24     -264210.64      1225793.7    
    264000   2451.4531     -333.5869      -264465.09      6.551987      -284269.47     -264720.3       1225749.2    
    265000   2455.7252      238.10981     -264495.22      6.5573517     -284334.12     -264313.2       1224746.4    
    266000   2458.3186     -648.51213     -264377.1       6.5491211     -284236.94     -264873.46      1226285.6    
    267000   2456.397      -324.7057      -264609.63      6.5582674     -284453.95     -264857.81      1224575.4    
    268000   2455.6695     -258.20813     -264365.21      6.5509625     -284203.66     -264562.79      1225940.9    
    269000   2438.8869      15.067108     -264523.83      6.5538673     -284226.69     -264512.31      1225397.5    
    270000   2438.0067     -170.37968     -264652.7       6.5576451     -284348.45     -264782.94      1224691.6    
Loop time of 188.132 on 36 procs for 10000 steps with 62500 atoms

Performance: 4.593 ns/day, 5.226 hours/ns, 53.154 timesteps/s, 3.322 Matom-step/s
99.6% CPU use with 36 MPI tasks x no OpenMP threads

MPI task timing breakdown:
Section |  min time  |  avg time  |  max time  |%varavg| %total
---------------------------------------------------------------
Pair    | 177.02     | 177.75     | 178.72     |   3.6 | 94.48
Neigh   | 6.2172     | 6.3076     | 6.4166     |   1.9 |  3.35
Comm    | 1.5966     | 2.6462     | 3.4044     |  31.5 |  1.41
Output  | 0.0010566  | 0.001091   | 0.002194   |   0.6 |  0.00
Modify  | 1.0583     | 1.1455     | 1.1929     |   4.5 |  0.61
Other   |            | 0.2843     |            |       |  0.15

Nlocal:        1736.11 ave        1770 max        1713 min
Histogram: 4 4 5 4 8 4 2 2 2 1
Nghost:        2341.28 ave        2377 max        2305 min
Histogram: 2 1 6 5 5 3 7 1 4 2
Neighs:        26687.5 ave       27731 max       26066 min
Histogram: 4 4 7 7 7 1 2 1 2 1
FullNghs:        53375 ave       55386 max       52039 min
Histogram: 4 3 7 6 6 3 2 2 2 1

Total # of neighbors = 1921500
Ave neighs/atom = 30.744
Neighbor list builds = 1713
Dangerous builds = 0
  unfix NPT

  if "${eq_steps} > 0" then   "fix NPT all npt temp ${Tstop} ${Tstop} ${Tdamp} iso ${Ptarget} ${Ptarget} ${Pdamp}; run ${eq_steps}; unfix NPT"

  next i
jump lammps_script loop_cool
  variable Tstart equal 2500 - (${i}-1)*${dTseg}
  variable Tstart equal 2500 - (6-1)*${dTseg}
  variable Tstart equal 2500 - (6-1)*10
  variable Tstop  equal 2500 - (${i})*${dTseg}
  variable Tstop  equal 2500 - (6)*${dTseg}
  variable Tstop  equal 2500 - (6)*10

  fix NPT all npt temp ${Tstart} ${Tstop} ${Tdamp} iso ${Ptarget} ${Ptarget} ${Pdamp}
  fix NPT all npt temp 2450 ${Tstop} ${Tdamp} iso ${Ptarget} ${Ptarget} ${Pdamp}
  fix NPT all npt temp 2450 2440 ${Tdamp} iso ${Ptarget} ${Ptarget} ${Pdamp}
  fix NPT all npt temp 2450 2440 0.1 iso ${Ptarget} ${Ptarget} ${Pdamp}
  fix NPT all npt temp 2450 2440 0.1 iso 0 ${Ptarget} ${Pdamp}
  fix NPT all npt temp 2450 2440 0.1 iso 0 0 ${Pdamp}
  fix NPT all npt temp 2450 2440 0.1 iso 0 0 1
  run ${seg_steps}
  run 10000
Per MPI rank memory allocation (min/avg/max) = 10.16 | 10.32 | 10.72 Mbytes
   Step          Temp          Press          TotEng        Density         PotEng        Enthalpy        Volume    
    270000   2438.0067     -170.37968     -264652.7       6.5576451     -284348.45     -264782.94      1224691.6    
    271000   2456.2475     -238.06694     -264521         6.5547523     -284364.12     -264703.06      1225232.1    
    272000   2459.0233      311.60069     -264574.99      6.5608204     -284440.53     -264336.92      1224098.9    
    273000   2453.1551      326.46166     -264554.95      6.5601135     -284373.08     -264305.5       1224230.8    
    274000   2468.4002      221.57708     -264453.45      6.5579703     -284394.74     -264284.08      1224630.8    
    275000   2442.064       6.6221109     -264714.79      6.5602623     -284443.32     -264709.73      1224203      
    276000   2443.3335      157.88684     -264707.59      6.5592943     -284446.38     -264586.93      1224383.7    
    277000   2442.1026     -389.67363     -264692.85      6.5562719     -284421.69     -264990.77      1224948.1    
    278000   2444.8074     -158.04252     -264558.91      6.5544146     -284309.6      -264679.77      1225295.2    
    279000   2433.215       288.59074     -264777.52      6.5616183     -284434.56     -264557.05      1223950      
    280000   2440.3072     -373.64103     -264590.21      6.5542621     -284304.55     -264875.96      1225323.7    
Loop time of 188.17 on 36 procs for 10000 steps with 62500 atoms

Performance: 4.592 ns/day, 5.227 hours/ns, 53.144 timesteps/s, 3.321 Matom-step/s
99.6% CPU use with 36 MPI tasks x no OpenMP threads

MPI task timing breakdown:
Section |  min time  |  avg time  |  max time  |%varavg| %total
---------------------------------------------------------------
Pair    | 177        | 177.85     | 179.01     |   3.8 | 94.51
Neigh   | 6.1361     | 6.2641     | 6.3731     |   2.1 |  3.33
Comm    | 1.4915     | 2.6242     | 3.5309     |  32.2 |  1.39
Output  | 0.0010957  | 0.0011296  | 0.002204   |   0.5 |  0.00
Modify  | 1.0587     | 1.1489     | 1.2397     |   6.9 |  0.61
Other   |            | 0.2834     |            |       |  0.15

Nlocal:        1736.11 ave        1756 max        1706 min
Histogram: 1 0 2 2 5 10 5 1 5 5
Nghost:        2347.94 ave        2407 max        2313 min
Histogram: 2 4 11 4 3 9 2 0 0 1
Neighs:        26676.1 ave       27320 max       25825 min
Histogram: 1 1 0 4 10 3 6 3 7 1
FullNghs:      53352.1 ave       54615 max       51666 min
Histogram: 1 1 0 5 9 5 4 4 5 2

Total # of neighbors = 1920676
Ave neighs/atom = 30.730816
Neighbor list builds = 1701
Dangerous builds = 0
  unfix NPT

  if "${eq_steps} > 0" then   "fix NPT all npt temp ${Tstop} ${Tstop} ${Tdamp} iso ${Ptarget} ${Ptarget} ${Pdamp}; run ${eq_steps}; unfix NPT"

  next i
jump lammps_script loop_cool
  variable Tstart equal 2500 - (${i}-1)*${dTseg}
  variable Tstart equal 2500 - (7-1)*${dTseg}
  variable Tstart equal 2500 - (7-1)*10
  variable Tstop  equal 2500 - (${i})*${dTseg}
  variable Tstop  equal 2500 - (7)*${dTseg}
  variable Tstop  equal 2500 - (7)*10

  fix NPT all npt temp ${Tstart} ${Tstop} ${Tdamp} iso ${Ptarget} ${Ptarget} ${Pdamp}
  fix NPT all npt temp 2440 ${Tstop} ${Tdamp} iso ${Ptarget} ${Ptarget} ${Pdamp}
  fix NPT all npt temp 2440 2430 ${Tdamp} iso ${Ptarget} ${Ptarget} ${Pdamp}
  fix NPT all npt temp 2440 2430 0.1 iso ${Ptarget} ${Ptarget} ${Pdamp}
  fix NPT all npt temp 2440 2430 0.1 iso 0 ${Ptarget} ${Pdamp}
  fix NPT all npt temp 2440 2430 0.1 iso 0 0 ${Pdamp}
  fix NPT all npt temp 2440 2430 0.1 iso 0 0 1
  run ${seg_steps}
  run 10000
Per MPI rank memory allocation (min/avg/max) = 10.16 | 10.32 | 10.72 Mbytes
   Step          Temp          Press          TotEng        Density         PotEng        Enthalpy        Volume    
    280000   2440.3072     -373.64103     -264590.21      6.5542621     -284304.55     -264875.96      1225323.7    
    281000   2435.9878     -215.9973      -264697.18      6.5575883     -284376.62     -264862.28      1224702.2    
    282000   2446.2308     -60.059887     -264755.09      6.5611658     -284517.28     -264800.97      1224034.4    
    283000   2427.8988     -275.2735      -264794.17      6.5571919     -284408.27     -265004.6       1224776.2    
    284000   2443.3637     -622.40156     -264749.11      6.5546011     -284488.14     -265225.09      1225260.3    
    285000   2434.6092     -23.924866     -264946.81      6.563789      -284615.12     -264965.08      1223545.2    
    286000   2442.2726     -10.824714     -264717.87      6.5591355     -284448.09     -264726.14      1224413.3    
    287000   2416.6333      78.120072     -264967.24      6.5613152     -284490.33     -264907.56      1224006.5    
    288000   2427.609       87.158409     -264790.92      6.5591883     -284402.67     -264724.31      1224403.4    
    289000   2441.6844     -99.728387     -264797.35      6.5609134     -284522.82     -264873.55      1224081.5    
    290000   2425.3203      23.35073      -264962.91      6.5631167     -284556.17     -264945.08      1223670.6    
Loop time of 188.023 on 36 procs for 10000 steps with 62500 atoms

Performance: 4.595 ns/day, 5.223 hours/ns, 53.185 timesteps/s, 3.324 Matom-step/s
99.6% CPU use with 36 MPI tasks x no OpenMP threads

MPI task timing breakdown:
Section |  min time  |  avg time  |  max time  |%varavg| %total
---------------------------------------------------------------
Pair    | 176.9      | 177.77     | 178.62     |   3.5 | 94.54
Neigh   | 6.1713     | 6.2833     | 6.3995     |   1.9 |  3.34
Comm    | 1.6504     | 2.5422     | 3.4695     |  30.7 |  1.35
Output  | 0.0011165  | 0.0011496  | 0.0021921  |   0.5 |  0.00
Modify  | 1.0627     | 1.1475     | 1.2424     |   6.1 |  0.61
Other   |            | 0.2838     |            |       |  0.15

Nlocal:        1736.11 ave        1771 max        1717 min
Histogram: 5 3 8 8 3 5 2 1 0 1
Nghost:        2340.28 ave        2375 max        2297 min
Histogram: 2 2 2 4 4 4 8 6 0 4
Neighs:          26728 ave       27525 max       26212 min
Histogram: 5 2 5 6 8 4 4 1 0 1
FullNghs:      53456.1 ave       55118 max       52448 min
Histogram: 4 4 6 7 5 5 3 1 0 1

Total # of neighbors = 1924418
Ave neighs/atom = 30.790688
Neighbor list builds = 1706
Dangerous builds = 0
  unfix NPT

  if "${eq_steps} > 0" then   "fix NPT all npt temp ${Tstop} ${Tstop} ${Tdamp} iso ${Ptarget} ${Ptarget} ${Pdamp}; run ${eq_steps}; unfix NPT"

  next i
jump lammps_script loop_cool
  variable Tstart equal 2500 - (${i}-1)*${dTseg}
  variable Tstart equal 2500 - (8-1)*${dTseg}
  variable Tstart equal 2500 - (8-1)*10
  variable Tstop  equal 2500 - (${i})*${dTseg}
  variable Tstop  equal 2500 - (8)*${dTseg}
  variable Tstop  equal 2500 - (8)*10

  fix NPT all npt temp ${Tstart} ${Tstop} ${Tdamp} iso ${Ptarget} ${Ptarget} ${Pdamp}
  fix NPT all npt temp 2430 ${Tstop} ${Tdamp} iso ${Ptarget} ${Ptarget} ${Pdamp}
  fix NPT all npt temp 2430 2420 ${Tdamp} iso ${Ptarget} ${Ptarget} ${Pdamp}
  fix NPT all npt temp 2430 2420 0.1 iso ${Ptarget} ${Ptarget} ${Pdamp}
  fix NPT all npt temp 2430 2420 0.1 iso 0 ${Ptarget} ${Pdamp}
  fix NPT all npt temp 2430 2420 0.1 iso 0 0 ${Pdamp}
  fix NPT all npt temp 2430 2420 0.1 iso 0 0 1
  run ${seg_steps}
  run 10000
Per MPI rank memory allocation (min/avg/max) = 10.16 | 10.32 | 10.72 Mbytes
   Step          Temp          Press          TotEng        Density         PotEng        Enthalpy        Volume    
    290000   2425.3203      23.35073      -264962.91      6.5631167     -284556.17     -264945.08      1223670.6    
    291000   2427.444      -103.50258     -265026.62      6.5656022     -284637.04     -265105.64      1223207.3    
    292000   2426.5561     -1474.4919     -265015.01      6.5548916     -284618.26     -266142.57      1225206      
    293000   2419.798      -317.44104     -265102.48      6.5629513     -284651.13     -265344.93      1223701.4    
    294000   2432.4438      205.10926     -264989.54      6.5678127     -284640.36     -264833         1222795.6    
    295000   2422.6904      479.10037     -264956.55      6.5686119     -284528.57     -264590.94      1222646.9    
    296000   2430.9123      712.57655     -265081.55      6.5715001     -284719.99     -264538.01      1222109.5    
    297000   2435.9963      170.11665     -264960.25      6.5649229     -284639.76     -264830.36      1223333.9    
    298000   2429.7296      326.83017     -264943.62      6.5642097     -284572.5      -264694.04      1223466.8    
    299000   2424.5515      187.58462     -264977.11      6.5645529     -284564.16     -264833.87      1223402.8    
    300000   2416.5957      546.09254     -265174.05      6.5694577     -284696.83     -264757.37      1222489.4    
Loop time of 188.451 on 36 procs for 10000 steps with 62500 atoms

Performance: 4.585 ns/day, 5.235 hours/ns, 53.064 timesteps/s, 3.317 Matom-step/s
99.6% CPU use with 36 MPI tasks x no OpenMP threads

MPI task timing breakdown:
Section |  min time  |  avg time  |  max time  |%varavg| %total
---------------------------------------------------------------
Pair    | 177.22     | 178.16     | 179.19     |   3.6 | 94.54
Neigh   | 6.1435     | 6.251      | 6.358      |   2.0 |  3.32
Comm    | 1.5737     | 2.6138     | 3.6106     |  31.7 |  1.39
Output  | 0.0010997  | 0.0011336  | 0.0022007  |   0.5 |  0.00
Modify  | 1.0659     | 1.1445     | 1.2102     |   5.1 |  0.61
Other   |            | 0.2836     |            |       |  0.15

Nlocal:        1736.11 ave        1757 max        1708 min
Histogram: 2 0 3 3 4 6 8 3 4 3
Nghost:        2345.64 ave        2382 max        2310 min
Histogram: 2 1 4 5 6 7 3 4 3 1
Neighs:          26745 ave       27330 max       26112 min
Histogram: 3 2 3 5 4 2 7 5 2 3
FullNghs:        53490 ave       54602 max       52185 min
Histogram: 3 2 4 3 5 3 2 9 1 4

Total # of neighbors = 1925640
Ave neighs/atom = 30.81024
Neighbor list builds = 1697
Dangerous builds = 0
  unfix NPT

  if "${eq_steps} > 0" then   "fix NPT all npt temp ${Tstop} ${Tstop} ${Tdamp} iso ${Ptarget} ${Ptarget} ${Pdamp}; run ${eq_steps}; unfix NPT"

  next i
jump lammps_script loop_cool
  variable Tstart equal 2500 - (${i}-1)*${dTseg}
  variable Tstart equal 2500 - (9-1)*${dTseg}
  variable Tstart equal 2500 - (9-1)*10
  variable Tstop  equal 2500 - (${i})*${dTseg}
  variable Tstop  equal 2500 - (9)*${dTseg}
  variable Tstop  equal 2500 - (9)*10

  fix NPT all npt temp ${Tstart} ${Tstop} ${Tdamp} iso ${Ptarget} ${Ptarget} ${Pdamp}
  fix NPT all npt temp 2420 ${Tstop} ${Tdamp} iso ${Ptarget} ${Ptarget} ${Pdamp}
  fix NPT all npt temp 2420 2410 ${Tdamp} iso ${Ptarget} ${Ptarget} ${Pdamp}
  fix NPT all npt temp 2420 2410 0.1 iso ${Ptarget} ${Ptarget} ${Pdamp}
  fix NPT all npt temp 2420 2410 0.1 iso 0 ${Ptarget} ${Pdamp}
  fix NPT all npt temp 2420 2410 0.1 iso 0 0 ${Pdamp}
  fix NPT all npt temp 2420 2410 0.1 iso 0 0 1
  run ${seg_steps}
  run 10000
Per MPI rank memory allocation (min/avg/max) = 10.16 | 10.32 | 10.72 Mbytes
   Step          Temp          Press          TotEng        Density         PotEng        Enthalpy        Volume    
    300000   2416.5957      546.09254     -265174.05      6.5694577     -284696.83     -264757.37      1222489.4    
    301000   2415.2734     -565.91201     -265242.04      6.5639602     -284754.14     -265674.2       1223513.3    
    302000   2418.7808     -390.33896     -265211.7       6.5662673     -284752.13     -265509.68      1223083.4    
    303000   2400.5804      36.810904     -265362.25      6.569646      -284755.65     -265334.17      1222454.4    
    304000   2411.9223     -557.2906      -265072.02      6.5607313     -284557.05     -265497.81      1224115.5    
    305000   2411.3744     -25.043896     -265332.15      6.5691729     -284812.76     -265351.26      1222542.4    
    306000   2402.8675     -767.09124     -265456.41      6.5654936     -284868.29     -266042.07      1223227.6    
    307000   2404.4835      12.141915     -265375.16      6.5706832     -284800.09     -265365.9       1222261.4    
    308000   2413.9813     -452.05502     -265184.53      6.5629915     -284686.19     -265529.8       1223693.9    
    309000   2398.1082      174.58303     -265494.98      6.5759229     -284868.41     -265361.9       1221287.5    
    310000   2415.7922     -149.73673     -265249.36      6.5669516     -284765.65     -265363.65      1222956      
Loop time of 188.325 on 36 procs for 10000 steps with 62500 atoms

Performance: 4.588 ns/day, 5.231 hours/ns, 53.100 timesteps/s, 3.319 Matom-step/s
99.6% CPU use with 36 MPI tasks x no OpenMP threads

MPI task timing breakdown:
Section |  min time  |  avg time  |  max time  |%varavg| %total
---------------------------------------------------------------
Pair    | 176.88     | 178.04     | 179.13     |   3.9 | 94.54
Neigh   | 6.1336     | 6.2558     | 6.356      |   1.9 |  3.32
Comm    | 1.4699     | 2.5951     | 3.7904     |  34.2 |  1.38
Output  | 0.0010999  | 0.0011335  | 0.0021759  |   0.5 |  0.00
Modify  | 1.0824     | 1.1482     | 1.2094     |   4.3 |  0.61
Other   |            | 0.2837     |            |       |  0.15

Nlocal:        1736.11 ave        1772 max        1713 min
Histogram: 6 4 2 8 2 7 3 3 0 1
Nghost:        2339.39 ave        2368 max        2304 min
Histogram: 1 2 2 3 8 2 10 3 2 3
Neighs:        26727.1 ave       27683 max       25757 min
Histogram: 1 1 5 5 5 8 7 2 0 2
FullNghs:      53454.2 ave       55290 max       51775 min
Histogram: 1 3 7 2 6 6 5 4 0 2

Total # of neighbors = 1924352
Ave neighs/atom = 30.789632
Neighbor list builds = 1698
Dangerous builds = 0
  unfix NPT

  if "${eq_steps} > 0" then   "fix NPT all npt temp ${Tstop} ${Tstop} ${Tdamp} iso ${Ptarget} ${Ptarget} ${Pdamp}; run ${eq_steps}; unfix NPT"

  next i
jump lammps_script loop_cool
  variable Tstart equal 2500 - (${i}-1)*${dTseg}
  variable Tstart equal 2500 - (10-1)*${dTseg}
  variable Tstart equal 2500 - (10-1)*10
  variable Tstop  equal 2500 - (${i})*${dTseg}
  variable Tstop  equal 2500 - (10)*${dTseg}
  variable Tstop  equal 2500 - (10)*10

  fix NPT all npt temp ${Tstart} ${Tstop} ${Tdamp} iso ${Ptarget} ${Ptarget} ${Pdamp}
  fix NPT all npt temp 2410 ${Tstop} ${Tdamp} iso ${Ptarget} ${Ptarget} ${Pdamp}
  fix NPT all npt temp 2410 2400 ${Tdamp} iso ${Ptarget} ${Ptarget} ${Pdamp}
  fix NPT all npt temp 2410 2400 0.1 iso ${Ptarget} ${Ptarget} ${Pdamp}
  fix NPT all npt temp 2410 2400 0.1 iso 0 ${Ptarget} ${Pdamp}
  fix NPT all npt temp 2410 2400 0.1 iso 0 0 ${Pdamp}
  fix NPT all npt temp 2410 2400 0.1 iso 0 0 1
  run ${seg_steps}
  run 10000
Per MPI rank memory allocation (min/avg/max) = 10.16 | 10.32 | 10.72 Mbytes
   Step          Temp          Press          TotEng        Density         PotEng        Enthalpy        Volume    
    310000   2415.7922     -149.73673     -265249.36      6.5669516     -284765.65     -265363.65      1222956      
    311000   2392.6275     -263.05134     -265512.07      6.5705094     -284841.22     -265712.75      1222293.8    
    312000   2411.62        126.53932     -265323.47      6.5702702     -284806.06     -265226.93      1222338.3    
    313000   2391.1876      318.87443     -265467.49      6.5740169     -284785.01     -265224.35      1221641.6    
    314000   2413.131      -156.45915     -265360.46      6.5693294     -284855.26     -265479.85      1222513.3    
    315000   2409.7712      730.95857     -265391.03      6.5760733     -284858.68     -264833.86      1221259.6    
    316000   2416.8878      161.39937     -265305.4       6.570509      -284830.54     -265182.27      1222293.9    
    317000   2410.8381     -306.21896     -265525.98      6.5718937     -285002.25     -265759.55      1222036.3    
    318000   2403.3211      838.5706      -265632.92      6.5825871     -285048.46     -264994.35      1220051.1    
    319000   2400.5462     -249.19635     -265614.06      6.5747631     -285007.19     -265804.05      1221503      
    320000   2410.7566     -406.43412     -265586.83      6.5741734     -285062.44     -265896.72      1221612.5    
Loop time of 188.493 on 36 procs for 10000 steps with 62500 atoms

Performance: 4.584 ns/day, 5.236 hours/ns, 53.052 timesteps/s, 3.316 Matom-step/s
99.6% CPU use with 36 MPI tasks x no OpenMP threads

MPI task timing breakdown:
Section |  min time  |  avg time  |  max time  |%varavg| %total
---------------------------------------------------------------
Pair    | 177.01     | 178.2      | 179.11     |   3.9 | 94.54
Neigh   | 6.1206     | 6.2705     | 6.3542     |   2.1 |  3.33
Comm    | 1.6375     | 2.5935     | 3.9089     |  34.3 |  1.38
Output  | 0.0011014  | 0.0011346  | 0.0021973  |   0.5 |  0.00
Modify  | 1.0835     | 1.1434     | 1.2012     |   4.0 |  0.61
Other   |            | 0.2843     |            |       |  0.15

Nlocal:        1736.11 ave        1758 max        1700 min
Histogram: 1 1 1 2 5 3 7 9 5 2
Nghost:        2340.56 ave        2386 max        2315 min
Histogram: 4 4 8 5 6 5 3 0 0 1
Neighs:        26757.4 ave       27454 max       25839 min
Histogram: 1 1 2 4 4 6 7 6 4 1
FullNghs:      53514.7 ave       54695 max       51619 min
Histogram: 1 1 0 5 3 5 6 9 2 4

Total # of neighbors = 1926530
Ave neighs/atom = 30.82448
Neighbor list builds = 1702
Dangerous builds = 0
  unfix NPT

  if "${eq_steps} > 0" then   "fix NPT all npt temp ${Tstop} ${Tstop} ${Tdamp} iso ${Ptarget} ${Ptarget} ${Pdamp}; run ${eq_steps}; unfix NPT"

  next i
jump lammps_script loop_cool
  variable Tstart equal 2500 - (${i}-1)*${dTseg}
  variable Tstart equal 2500 - (11-1)*${dTseg}
  variable Tstart equal 2500 - (11-1)*10
  variable Tstop  equal 2500 - (${i})*${dTseg}
  variable Tstop  equal 2500 - (11)*${dTseg}
  variable Tstop  equal 2500 - (11)*10

  fix NPT all npt temp ${Tstart} ${Tstop} ${Tdamp} iso ${Ptarget} ${Ptarget} ${Pdamp}
  fix NPT all npt temp 2400 ${Tstop} ${Tdamp} iso ${Ptarget} ${Ptarget} ${Pdamp}
  fix NPT all npt temp 2400 2390 ${Tdamp} iso ${Ptarget} ${Ptarget} ${Pdamp}
  fix NPT all npt temp 2400 2390 0.1 iso ${Ptarget} ${Ptarget} ${Pdamp}
  fix NPT all npt temp 2400 2390 0.1 iso 0 ${Ptarget} ${Pdamp}
  fix NPT all npt temp 2400 2390 0.1 iso 0 0 ${Pdamp}
  fix NPT all npt temp 2400 2390 0.1 iso 0 0 1
  run ${seg_steps}
  run 10000
Per MPI rank memory allocation (min/avg/max) = 10.16 | 10.32 | 10.72 Mbytes
   Step          Temp          Press          TotEng        Density         PotEng        Enthalpy        Volume    
    320000   2410.7566     -406.43412     -265586.83      6.5741734     -285062.44     -265896.72      1221612.5    
    321000   2393.4038     -113.73066     -265548.01      6.5725767     -284883.44     -265634.75      1221909.3    
    322000   2406.253      -829.7822      -265494.59      6.5654949     -284933.82     -266128.11      1223227.3    
    323000   2391.3745     -49.991646     -265800.79      6.5797729     -285119.81     -265838.87      1220572.9    
    324000   2391.2485     -358.0134      -265836.23      6.5768947     -285154.24     -266109.09      1221107.1    
    325000   2392.7714     -501.09257     -265514.49      6.5663729     -284844.81     -265897.01      1223063.8    
    326000   2398.9457     -1071.8655     -265753.51      6.5715575     -285133.71     -266571.1       1222098.8    
    327000   2396.5716     -335.4287      -265684.53      6.575143      -285045.55     -265940.25      1221432.4    
    328000   2397.7249      550.49611     -265848.13      6.5841558     -285218.46     -265429.03      1219760.4    
    329000   2399.322      -56.604217     -265727.32      6.5781909     -285110.56     -265770.46      1220866.5    
    330000   2386.08        140.08825     -265879.4       6.5782927     -285155.66     -265772.65      1220847.6    
Loop time of 188.603 on 36 procs for 10000 steps with 62500 atoms

Performance: 4.581 ns/day, 5.239 hours/ns, 53.021 timesteps/s, 3.314 Matom-step/s
99.6% CPU use with 36 MPI tasks x no OpenMP threads

MPI task timing breakdown:
Section |  min time  |  avg time  |  max time  |%varavg| %total
---------------------------------------------------------------
Pair    | 176.92     | 178.29     | 179.43     |   4.1 | 94.53
Neigh   | 6.1133     | 6.2539     | 6.3697     |   2.1 |  3.32
Comm    | 1.448      | 2.6257     | 4.0369     |  35.5 |  1.39
Output  | 0.0010645  | 0.0010995  | 0.0022025  |   0.6 |  0.00
Modify  | 1.0735     | 1.1514     | 1.2659     |   6.8 |  0.61
Other   |            | 0.2841     |            |       |  0.15

Nlocal:        1736.11 ave        1763 max        1707 min
Histogram: 4 1 2 6 3 5 7 1 3 4
Nghost:        2348.19 ave        2378 max        2307 min
Histogram: 1 1 2 4 9 4 3 4 2 6
Neighs:        26778.4 ave       27608 max       25813 min
Histogram: 2 2 4 4 3 3 8 3 4 3
FullNghs:      53556.8 ave       55150 max       51697 min
Histogram: 2 2 4 4 2 5 8 1 4 4

Total # of neighbors = 1928044
Ave neighs/atom = 30.848704
Neighbor list builds = 1698
Dangerous builds = 0
  unfix NPT

  if "${eq_steps} > 0" then   "fix NPT all npt temp ${Tstop} ${Tstop} ${Tdamp} iso ${Ptarget} ${Ptarget} ${Pdamp}; run ${eq_steps}; unfix NPT"

  next i
jump lammps_script loop_cool
  variable Tstart equal 2500 - (${i}-1)*${dTseg}
  variable Tstart equal 2500 - (12-1)*${dTseg}
  variable Tstart equal 2500 - (12-1)*10
  variable Tstop  equal 2500 - (${i})*${dTseg}
  variable Tstop  equal 2500 - (12)*${dTseg}
  variable Tstop  equal 2500 - (12)*10

  fix NPT all npt temp ${Tstart} ${Tstop} ${Tdamp} iso ${Ptarget} ${Ptarget} ${Pdamp}
  fix NPT all npt temp 2390 ${Tstop} ${Tdamp} iso ${Ptarget} ${Ptarget} ${Pdamp}
  fix NPT all npt temp 2390 2380 ${Tdamp} iso ${Ptarget} ${Ptarget} ${Pdamp}
  fix NPT all npt temp 2390 2380 0.1 iso ${Ptarget} ${Ptarget} ${Pdamp}
  fix NPT all npt temp 2390 2380 0.1 iso 0 ${Ptarget} ${Pdamp}
  fix NPT all npt temp 2390 2380 0.1 iso 0 0 ${Pdamp}
  fix NPT all npt temp 2390 2380 0.1 iso 0 0 1
  run ${seg_steps}
  run 10000
Per MPI rank memory allocation (min/avg/max) = 10.16 | 10.32 | 10.72 Mbytes
   Step          Temp          Press          TotEng        Density         PotEng        Enthalpy        Volume    
    330000   2386.08        140.08825     -265879.4       6.5782927     -285155.66     -265772.65      1220847.6    
    331000   2398.9066     -206.70069     -265753.36      6.5767946     -285133.24     -265910.9       1221125.7    
    332000   2386.9858      179.17009     -265992.46      6.5835425     -285276.03     -265856.04      1219874.1    
    333000   2380.2029     -153.74732     -266058.82      6.5821357     -285287.6      -266175.9       1220134.8    
    334000   2379.7292     -89.824986     -266048.77      6.5816123     -285273.72     -266117.18      1220231.8    
    335000   2385.0207     -460.90943     -265991.49      6.581188      -285259.19     -266342.55      1220310.5    
    336000   2382.4761     -308.63457     -266001.88      6.582687      -285249.02     -266236.9       1220032.6    
    337000   2390.9136     -683.37672     -265879.6       6.5732642     -285194.91     -266400.73      1221781.5    
    338000   2379.7071      162.54296     -266149.1       6.5857126     -285373.87     -266025.38      1219472.1    
    339000   2386.1696      39.649123     -265842.65      6.579101      -285119.64     -265812.45      1220697.6    
    340000   2378.3133      327.15946     -265939.41      6.5823093     -285152.92     -265690.27      1220102.6    
Loop time of 188.498 on 36 procs for 10000 steps with 62500 atoms

Performance: 4.584 ns/day, 5.236 hours/ns, 53.051 timesteps/s, 3.316 Matom-step/s
99.6% CPU use with 36 MPI tasks x no OpenMP threads

MPI task timing breakdown:
Section |  min time  |  avg time  |  max time  |%varavg| %total
---------------------------------------------------------------
Pair    | 177.31     | 178.32     | 179.46     |   3.7 | 94.60
Neigh   | 6.0877     | 6.2182     | 6.307      |   2.0 |  3.30
Comm    | 1.3525     | 2.5298     | 3.6652     |  33.9 |  1.34
Output  | 0.0010829  | 0.0011179  | 0.0022082  |   0.6 |  0.00
Modify  | 1.0547     | 1.1407     | 1.305      |   8.2 |  0.61
Other   |            | 0.2856     |            |       |  0.15

Nlocal:        1736.11 ave        1752 max        1714 min
Histogram: 2 2 1 3 5 5 5 4 6 3
Nghost:         2345.5 ave        2381 max        2311 min
Histogram: 2 0 4 2 9 7 10 1 0 1
Neighs:        26809.8 ave       27352 max       26292 min
Histogram: 2 4 5 3 4 3 6 4 2 3
FullNghs:      53619.6 ave       54715 max       52608 min
Histogram: 3 3 6 2 4 3 8 3 3 1

Total # of neighbors = 1930304
Ave neighs/atom = 30.884864
Neighbor list builds = 1687
Dangerous builds = 0
  unfix NPT

  if "${eq_steps} > 0" then   "fix NPT all npt temp ${Tstop} ${Tstop} ${Tdamp} iso ${Ptarget} ${Ptarget} ${Pdamp}; run ${eq_steps}; unfix NPT"

  next i
jump lammps_script loop_cool
  variable Tstart equal 2500 - (${i}-1)*${dTseg}
  variable Tstart equal 2500 - (13-1)*${dTseg}
  variable Tstart equal 2500 - (13-1)*10
  variable Tstop  equal 2500 - (${i})*${dTseg}
  variable Tstop  equal 2500 - (13)*${dTseg}
  variable Tstop  equal 2500 - (13)*10

  fix NPT all npt temp ${Tstart} ${Tstop} ${Tdamp} iso ${Ptarget} ${Ptarget} ${Pdamp}
  fix NPT all npt temp 2380 ${Tstop} ${Tdamp} iso ${Ptarget} ${Ptarget} ${Pdamp}
  fix NPT all npt temp 2380 2370 ${Tdamp} iso ${Ptarget} ${Ptarget} ${Pdamp}
  fix NPT all npt temp 2380 2370 0.1 iso ${Ptarget} ${Ptarget} ${Pdamp}
  fix NPT all npt temp 2380 2370 0.1 iso 0 ${Ptarget} ${Pdamp}
  fix NPT all npt temp 2380 2370 0.1 iso 0 0 ${Pdamp}
  fix NPT all npt temp 2380 2370 0.1 iso 0 0 1
  run ${seg_steps}
  run 10000
Per MPI rank memory allocation (min/avg/max) = 10.16 | 10.32 | 10.72 Mbytes
   Step          Temp          Press          TotEng        Density         PotEng        Enthalpy        Volume    
    340000   2378.3133      327.15946     -265939.41      6.5823093     -285152.92     -265690.27      1220102.6    
    341000   2387.6352      325.72593     -266146.72      6.589268      -285435.54     -265898.94      1218814.1    
    342000   2377.1553      144.67673     -266186.52      6.5865889     -285390.67     -266076.41      1219309.8    
    343000   2373.6444      170.48521     -266142.55      6.5843966     -285318.35     -266012.77      1219715.8    
    344000   2377.7137      312.76813     -266044.53      6.5879826     -285253.2      -265806.55      1219051.9    
    345000   2363.2548      11.386284     -266241.2       6.587185      -285333.06     -266232.54      1219199.5    
    346000   2369.0587     -49.111512     -266223.33      6.5837387     -285362.08     -266260.72      1219837.7    
    347000   2385.8372     -43.24294      -266192.31      6.5870665     -285466.6      -266225.21      1219221.4    
    348000   2368.1534      330.14574     -266273.06      6.589238      -285404.49     -266021.91      1218819.6    
    349000   2371.8945     -0.61153107    -266241.67      6.5876567     -285403.33     -266242.13      1219112.2    
    350000   2366.7384     -739.8723      -266123.89      6.5788        -285243.89     -266687.62      1220753.4    
Loop time of 190.038 on 36 procs for 10000 steps with 62500 atoms

Performance: 4.546 ns/day, 5.279 hours/ns, 52.621 timesteps/s, 3.289 Matom-step/s
99.6% CPU use with 36 MPI tasks x no OpenMP threads

MPI task timing breakdown:
Section |  min time  |  avg time  |  max time  |%varavg| %total
---------------------------------------------------------------
Pair    | 177.3      | 178.5      | 179.98     |   4.3 | 93.93
Neigh   | 6.1334     | 6.2375     | 6.3588     |   2.0 |  3.28
Comm    | 1.9059     | 3.3676     | 4.7712     |  34.9 |  1.77
Output  | 0.001078   | 0.0011129  | 0.0021995  |   0.6 |  0.00
Modify  | 1.3799     | 1.5302     | 1.8996     |  12.9 |  0.81
Other   |            | 0.4046     |            |       |  0.21

Nlocal:        1736.11 ave        1763 max        1706 min
Histogram: 2 2 4 2 5 8 3 5 2 3
Nghost:        2351.44 ave        2379 max        2319 min
Histogram: 3 3 3 4 2 4 4 2 7 4
Neighs:        26778.8 ave       27449 max       26010 min
Histogram: 1 4 2 4 6 5 2 5 3 4
FullNghs:      53557.6 ave       55043 max       51961 min
Histogram: 1 3 3 5 8 3 2 7 3 1

Total # of neighbors = 1928072
Ave neighs/atom = 30.849152
Neighbor list builds = 1693
Dangerous builds = 0
  unfix NPT

  if "${eq_steps} > 0" then   "fix NPT all npt temp ${Tstop} ${Tstop} ${Tdamp} iso ${Ptarget} ${Ptarget} ${Pdamp}; run ${eq_steps}; unfix NPT"

  next i
jump lammps_script loop_cool
  variable Tstart equal 2500 - (${i}-1)*${dTseg}
  variable Tstart equal 2500 - (14-1)*${dTseg}
  variable Tstart equal 2500 - (14-1)*10
  variable Tstop  equal 2500 - (${i})*${dTseg}
  variable Tstop  equal 2500 - (14)*${dTseg}
  variable Tstop  equal 2500 - (14)*10

  fix NPT all npt temp ${Tstart} ${Tstop} ${Tdamp} iso ${Ptarget} ${Ptarget} ${Pdamp}
  fix NPT all npt temp 2370 ${Tstop} ${Tdamp} iso ${Ptarget} ${Ptarget} ${Pdamp}
  fix NPT all npt temp 2370 2360 ${Tdamp} iso ${Ptarget} ${Ptarget} ${Pdamp}
  fix NPT all npt temp 2370 2360 0.1 iso ${Ptarget} ${Ptarget} ${Pdamp}
  fix NPT all npt temp 2370 2360 0.1 iso 0 ${Ptarget} ${Pdamp}
  fix NPT all npt temp 2370 2360 0.1 iso 0 0 ${Pdamp}
  fix NPT all npt temp 2370 2360 0.1 iso 0 0 1
  run ${seg_steps}
  run 10000
Per MPI rank memory allocation (min/avg/max) = 10.16 | 10.32 | 10.72 Mbytes
   Step          Temp          Press          TotEng        Density         PotEng        Enthalpy        Volume    
    350000   2366.7384     -739.8723      -266123.89      6.5788        -285243.89     -266687.62      1220753.4    
    351000   2363.3374      257.81025     -266428.33      6.5932697     -285520.86     -266232.32      1218074.3    
    352000   2357.1069     -250.2866      -266215.82      6.5832328     -285258.01     -266406.39      1219931.4    
    353000   2365.9687     -455.16146     -266324.8       6.5852204     -285438.58     -266671.26      1219563.2    
    354000   2348.0811     -774.92199     -266421.63      6.5820362     -285390.91     -267011.78      1220153.2    
    355000   2355.3681     -54.390759     -266581.21      6.5929423     -285609.36     -266622.57      1218134.8    
    356000   2370.3435      551.15661     -266372.92      6.5943092     -285522.05     -265953.96      1217882.3    
    357000   2373.6382      544.91722     -266374.87      6.5951889     -285550.62     -265960.71      1217719.9    
    358000   2366.5534      301.07512     -266591.05      6.5972994     -285709.55     -266362.29      1217330.3    
    359000   2366.2806     -518.5991      -266466.85      6.5885392     -285583.15     -266861.4       1218948.9    
    360000   2373.3985     -362.05519     -266506.46      6.5917506     -285680.27     -266781.78      1218355.1    
Loop time of 188.891 on 36 procs for 10000 steps with 62500 atoms

Performance: 4.574 ns/day, 5.247 hours/ns, 52.941 timesteps/s, 3.309 Matom-step/s
99.6% CPU use with 36 MPI tasks x no OpenMP threads

MPI task timing breakdown:
Section |  min time  |  avg time  |  max time  |%varavg| %total
[...]
   1939000   702.84281      192.84959     -303030.41      7.2064153     -308708.42     -302896.27      1114436.6    
   1940000   699.05274      270.38401     -303052.02      7.2059971     -308699.41     -302863.94      1114501.2    
   1941000   703.03714      361.30762     -303003.46      7.2070213     -308683.04     -302752.16      1114342.9    
   1942000   699.29118      242.98197     -303064.75      7.206573      -308714.06     -302895.74      1114412.2    
   1943000   699.99128     -100.60777     -303005.12      7.2027996     -308660.09     -303075.13      1114996      
   1944000   699.05503      357.58607     -303013.91      7.2059005     -308661.31     -302765.16      1114516.2    
   1945000   701.51388      499.8857      -303009.19      7.2075515     -308676.46     -302661.53      1114260.9    
   1946000   699.3375       457.95366     -303050.35      7.2073475     -308700.04     -302731.85      1114292.4    
   1947000   701.59943      284.14971     -302996.65      7.2057875     -308664.61     -302798.98      1114533.7    
   1948000   700.45748      347.21625     -303041.42      7.2065429     -308700.16     -302799.91      1114416.8    
   1949000   701.23188     -12.303676     -303027.21      7.2051649     -308692.2      -303035.77      1114630      
   1950000   699.23862     -325.70243     -303040.42      7.203108      -308689.31     -303267.08      1114948.3    
   1951000   701.52116     -329.15624     -302989.49      7.2018968     -308656.82     -303218.58      1115135.8    
   1952000   697.04105     -632.92668     -303054.15      7.2003989     -308685.29     -303494.77      1115367.7    
   1953000   700.15328     -296.55738     -303028.42      7.2028833     -308684.7      -303234.8       1114983      
   1954000   701.17585     -61.877275     -303024.05      7.2040834     -308688.59     -303067.1       1114797.3    
   1955000   701.6684       160.48745     -303032.28      7.2055937     -308700.8      -302920.64      1114563.6    
   1956000   696.40093      438.74872     -303091.34      7.2081347     -308717.3      -302786.23      1114170.7    
   1957000   697.49708      317.0131      -303020.51      7.2062539     -308655.33     -302800         1114461.5    
   1958000   703.17568      199.10529     -303030.4       7.2059755     -308711.09     -302891.9       1114504.6    
   1959000   700.9067       321.12668     -303045.9       7.2075614     -308708.26     -302822.56      1114259.4    
   1960000   699.55715      207.79176     -303021.74      7.2058118     -308673.2      -302877.19      1114529.9    
   1961000   698.45111      157.52356     -303044.36      7.2057513     -308686.89     -302934.78      1114539.3    
   1962000   699.54461     -195.80397     -303021.68      7.2033175     -308673.04     -303157.94      1114915.8    
   1963000   701.05887     -253.18763     -303008.03      7.2022201     -308671.62     -303184.24      1115085.7    
   1964000   700.11667     -73.935301     -303034.94      7.2040045     -308690.93     -303086.39      1114809.5    
   1965000   698.17294     -220.7265      -303007.05      7.2019445     -308647.33     -303160.67      1115128.4    
   1966000   697.97687     -105.54749     -303042.54      7.2037278     -308681.24     -303115.99      1114852.3    
   1967000   702.31767     -286.20076     -303014.19      7.2026799     -308687.95     -303213.37      1115014.5    
   1968000   697.80729     -85.205101     -303058.71      7.2036672     -308696.04     -303118         1114861.7    
   1969000   700.02873      299.49188     -302996.02      7.2048872     -308651.3      -302787.66      1114672.9    
   1970000   701.43292      222.44705     -303011.31      7.205977      -308677.93     -302856.58      1114504.3    
   1971000   701.23253      542.3472      -303017.5       7.2082132     -308682.49     -302640.35      1114158.6    
   1972000   699.09318      182.78042     -303035.22      7.2056883     -308682.93     -302908.06      1114549      
   1973000   697.34248      220.95346     -303014.98      7.2056217     -308648.55     -302861.28      1114559.3    
   1974000   702.25121      200.82811     -303011.05      7.2057706     -308684.28     -302871.35      1114536.3    
   1975000   696.17159      452.94223     -303087.92      7.2080721     -308712.04     -302772.94      1114180.4    
   1976000   699.70698      398.82716     -303012.93      7.2065508     -308665.6      -302735.52      1114415.6    
   1977000   702.79308      172.44705     -303008.23      7.2051665     -308685.83     -302888.26      1114629.7    
   1978000   698.09094     -103.28657     -303055.92      7.2037308     -308695.54     -303127.79      1114851.9    
   1979000   699.17026     -452.64358     -303037.67      7.2014171     -308686.01     -303352.74      1115210.1    
   1980000   700.1118      -305.0503      -303075.42      7.2031428     -308731.37     -303287.71      1114942.9    
   1981000   700.35329     -172.3983      -303010.56      7.2029483     -308668.45     -303130.53      1114973      
   1982000   699.03577     -228.67151     -303023.43      7.202757      -308670.68     -303182.57      1115002.6    
   1983000   697.8723      -280.49789     -303045.17      7.2024951     -308683.02     -303240.38      1115043.1    
   1984000   700.41786     -281.68711     -303015.2       7.2025664     -308673.61     -303211.24      1115032.1    
   1985000   693.56111     -405.17493     -303075.25      7.2018612     -308678.27     -303357.26      1115141.3    
   1986000   701.96625     -527.75495     -303038.78      7.2009536     -308709.71     -303406.15      1115281.8    
   1987000   697.79166     -312.27207     -303048.28      7.2024029     -308685.48     -303265.61      1115057.4    
   1988000   698.46263     -101.78456     -303059.37      7.2035256     -308702        -303130.2       1114883.6    
   1989000   700.60313      275.81883     -303006.22      7.2057693     -308666.14     -302814.35      1114536.5    
   1990000   700.70343     -49.134338     -303032.41      7.2045908     -308693.13     -303066.6       1114718.8    
   1991000   701.09162      245.94263     -303041.15      7.2072572     -308705.01     -302870.1       1114306.4    
   1992000   705.05765      678.27651     -303012.81      7.2093949     -308708.71     -302541.21      1113976      
   1993000   700.84256      457.64179     -303029.41      7.2078869     -308691.26     -302711.15      1114209      
   1994000   697.33666      125.40225     -303046.2       7.2047354     -308679.73     -302958.96      1114696.4    
   1995000   701.3578      -57.224326     -303008.13      7.2032314     -308674.14     -303047.95      1114929.2    
   1996000   697.42905     -180.86572     -303064.92      7.2038029     -308699.19     -303190.77      1114840.7    
   1997000   702.09266     -476.94571     -303011.44      7.2010952     -308683.39     -303343.44      1115259.9    
   1998000   699.62754     -355.1655      -303017.03      7.202339      -308669.06     -303264.21      1115067.3    
   1999000   698.41205     -249.83813     -303049.91      7.2032781     -308692.13     -303223.77      1114921.9    
   2000000   697.96828     -241.09418     -303023.86      7.2033753     -308662.49     -303191.63      1114906.9    
   2001000   694.32987     -296.08006     -303068.55      7.2026819     -308677.78     -303274.6       1115014.2    
   2002000   702.12575     -298.75705     -303005.91      7.202662      -308678.13     -303213.83      1115017.3    
   2003000   698.83144      205.09149     -303041.56      7.2057056     -308687.16     -302898.89      1114546.3    
   2004000   703.39908      541.54902     -302988.11      7.2073851     -308670.61     -302611.47      1114286.6    
   2005000   699.92118     -37.038493     -303056.34      7.2049189     -308710.74     -303082.11      1114668      
   2006000   702.61953      9.0355366     -303026.6       7.2045581     -308702.8      -303020.31      1114723.8    
   2007000   700.925       -319.99183     -303081.66      7.2036337     -308744.17     -303304.32      1114866.9    
   2008000   697.21083     -604.13222     -303034.39      7.2002823     -308666.9      -303454.97      1115385.8    
   2009000   698.07561     -165.11007     -303058.02      7.2035398     -308697.52     -303172.92      1114881.4    
   2010000   702.0279      -143.98677     -303006.05      7.2032574     -308677.47     -303106.24      1114925.1    
   2011000   699.19472     -210.73351     -303045.95      7.2032962     -308694.49     -303192.6       1114919.1    
   2012000   699.98532      263.66591     -303050.85      7.2068653     -308705.77     -302867.46      1114367      
   2013000   704.55317      25.234711     -303018.14      7.2045315     -308709.97     -303000.58      1114728      
   2014000   701.24901     -264.72899     -303051.22      7.2032055     -308716.35     -303235.44      1114933.2    
   2015000   704.30113     -3.0138509     -303001.39      7.2044767     -308691.18     -303003.49      1114736.4    
   2016000   698.04923      264.44724     -303057.63      7.2064984     -308696.91     -302873.69      1114423.7    
   2017000   698.75222      335.68667     -303021.77      7.2061653     -308666.73     -302788.26      1114475.2    
   2018000   702.34086      54.882978     -303019.16      7.2051224     -308693.11     -302980.98      1114636.5    
   2019000   698.66095      52.737098     -303052.03      7.2042898     -308696.25     -303015.34      1114765.4    
   2020000   701.27436     -399.55897     -303025.22      7.2013199     -308690.56     -303303.34      1115225.1    
   2021000   699.50259     -244.96697     -303032.23      7.2023845     -308683.25     -303202.72      1115060.3    
   2022000   695.44795     -199.61684     -303062.61      7.2031314     -308680.87     -303201.52      1114944.6    
   2023000   703.10833     -880.36666     -302983.89      7.1978437     -308664.05     -303596.99      1115763.7    
   2024000   698.28618     -273.50106     -303083.02      7.202746      -308724.22     -303273.36      1115004.3    
   2025000   698.80861     -197.97587     -303018.88      7.2030973     -308664.29     -303156.65      1114949.9    
   2026000   699.80112     -48.648918     -303058.59      7.2042617     -308712.02     -303092.44      1114769.7    
   2027000   699.55695      490.82461     -303028.91      7.2068282     -308680.37     -302687.53      1114372.7    
   2028000   700.67381      989.15816     -303043.37      7.2103985     -308703.85     -302355.71      1113820.9    
   2029000   699.5591       299.89459     -303032.24      7.206092      -308683.72     -302823.63      1114486.6    
   2030000   698.1067       4.0149955     -303085.16      7.2058863     -308724.9      -303082.36      1114518.4    
   2031000   700.54818      251.50524     -303010.2       7.2050306     -308669.67     -302835.22      1114650.7    
   2032000   699.81687      306.49203     -303041.46      7.206012      -308695.02     -302828.25      1114498.9    
   2033000   700.09531     -109.95098     -303032.59      7.2026769     -308688.4      -303109.11      1115015      
   2034000   697.9703      -487.06697     -303042.34      7.2015546     -308680.98     -303381.36      1115188.8    
   2035000   703.83149     -353.85131     -302992.2       7.2016199     -308678.2      -303238.5       1115178.6    
   2036000   698.82981     -394.91429     -303046.44      7.2017725     -308692.02     -303321.31      1115155      
   2037000   701.85255     -503.38229     -303040.2       7.2012628     -308710.2      -303390.59      1115233.9    
   2038000   698.38615     -447.99059     -303090.95      7.2022078     -308732.95     -303402.74      1115087.6    
   2039000   703.64801     -607.84992     -303006.63      7.2006986     -308691.14     -303429.77      1115321.3    
   2040000   696.78328     -238.38715     -303053.68      7.2032018     -308682.73     -303219.57      1114933.7    
Loop time of 38868 on 36 procs for 2000000 steps with 62500 atoms

Performance: 4.446 ns/day, 5.398 hours/ns, 51.456 timesteps/s, 3.216 Matom-step/s
99.6% CPU use with 36 MPI tasks x no OpenMP threads

MPI task timing breakdown:
Section |  min time  |  avg time  |  max time  |%varavg| %total
---------------------------------------------------------------
Pair    | 37145      | 37370      | 37590      |  62.0 | 96.15
Neigh   | 711.23     | 727.02     | 739.2      |  27.2 |  1.87
Comm    | 262.46     | 489.87     | 723.94     | 564.4 |  1.26
Output  | 0.2003     | 0.20732    | 0.43409    |   8.4 |  0.00
Modify  | 217.57     | 225.86     | 234.06     |  35.4 |  0.58
Other   |            | 55.13      |            |       |  0.14

Nlocal:        1736.11 ave        1765 max        1716 min
Histogram: 3 3 4 9 3 9 4 0 0 1
Nghost:        2440.36 ave        2465 max        2419 min
Histogram: 4 3 2 6 2 9 3 2 3 2
Neighs:        30032.5 ave       30738 max       29535 min
Histogram: 4 3 6 5 5 3 6 1 2 1
FullNghs:        60065 ave       61508 max       59072 min
Histogram: 5 3 5 7 4 3 5 2 0 2

Total # of neighbors = 2162340
Ave neighs/atom = 34.59744
Neighbor list builds = 191760
Dangerous builds = 0
unfix NPT

fix NPT all npt temp ${Ttgt} ${Tcur} ${Tdamp} iso ${Ptarget} ${Ptarget} ${Pdamp}
fix NPT all npt temp 700 ${Tcur} ${Tdamp} iso ${Ptarget} ${Ptarget} ${Pdamp}
fix NPT all npt temp 700 300 ${Tdamp} iso ${Ptarget} ${Ptarget} ${Pdamp}
fix NPT all npt temp 700 300 0.1 iso ${Ptarget} ${Ptarget} ${Pdamp}
fix NPT all npt temp 700 300 0.1 iso 0 ${Ptarget} ${Pdamp}
fix NPT all npt temp 700 300 0.1 iso 0 0 ${Pdamp}
fix NPT all npt temp 700 300 0.1 iso 0 0 1
run ${ramp_steps}
run 40000
Per MPI rank memory allocation (min/avg/max) = 9.707 | 9.724 | 9.741 Mbytes
   Step          Temp          Press          TotEng        Density         PotEng        Enthalpy        Volume    
   2040000   696.78328     -238.38715     -303053.68      7.2032018     -308682.73     -303219.57      1114933.7    
   2041000   691.36098     -263.10986     -303207.56      7.2046816     -308792.81     -303390.61      1114704.7    
   2042000   680.3568      -213.54276     -303362.86      7.208188      -308859.21     -303511.36      1114162.5    
   2043000   671.80535     -211.61111     -303486.8       7.2094132     -308914.07     -303633.93      1113973.1    
   2044000   660.77993      143.99814     -303671.61      7.2144293     -309009.81     -303571.56      1113198.6    
   2045000   652.66763      183.57662     -303863.66      7.2169861     -309136.32     -303736.16      1112804.2    
   2046000   641.35451     -474.78786     -304037.77      7.2152706     -309219.03     -304367.61      1113068.8    
   2047000   630.98895     -305.67532     -304234.32      7.2201197     -309331.85     -304446.54      1112321.3    
   2048000   619.08565     -468.73037     -304381.35      7.2200544     -309382.72     -304706.78      1112331.3    
   2049000   611.24615     -119.33228     -304559.11      7.225849      -309497.14     -304641.89      1111439.3    
   2050000   602.07468     -199.60645     -304704.67      7.2272653     -309568.61     -304843.11      1111221.5    
   2051000   591.88784     -387.42454     -304885.59      7.2287251     -309667.23     -305154.24      1110997.1    
   2052000   583.14754      296.99721     -305051.24      7.2351503     -309762.27     -304845.47      1110010.5    
   2053000   570.23481     -66.131058     -305224.79      7.2349218     -309831.51     -305270.61      1110045.5    
   2054000   559.80023     -162.65269     -305387.6       7.2366896     -309910.01     -305500.26      1109774.4    
   2055000   550.3174      -131.16004     -305563.38      7.2393332     -310009.19     -305654.19      1109369.1    
   2056000   542.02717     -70.961397     -305718.7       7.242023      -310097.54     -305767.82      1108957.1    
   2057000   531.3682       230.84148     -305896.01      7.2463798     -310188.74     -305736.33      1108290.3    
   2058000   519.99489      205.3582      -306059.32      7.2485539     -310260.17     -305917.31      1107957.9    
   2059000   509.11715      195.54428     -306232.5       7.2507038     -310345.47     -306097.31      1107629.4    
   2060000   501.67786      233.10495     -306397.12      7.2533618     -310449.99     -306236.03      1107223.5    
   2061000   493.58766     -149.79434     -306556.11      7.2536557     -310543.62     -306659.62      1107178.6    
   2062000   480.67465     -28.209714     -306733.41      7.2562263     -310616.61     -306752.9       1106786.4    
   2063000   470.66386     -28.620558     -306904.06      7.2588595     -310706.38     -306923.82      1106384.9    
   2064000   461.97745     -312.7093      -307079.32      7.2598737     -310811.46     -307295.23      1106230.4    
   2065000   451.44391     -243.00124     -307237.26      7.2624602     -310884.31     -307404.98      1105836.4    
   2066000   442.75237      23.980851     -307405.57      7.2664768     -310982.41     -307389.03      1105225.1    
   2067000   431.90112     -72.81839      -307566.96      7.2680982     -311056.13     -307617.18      1104978.6    
   2068000   420.85368     -146.85902     -307737.96      7.2698459     -311137.88     -307839.22      1104712.9    
   2069000   411.45967      32.74898      -307906.62      7.2736969     -311230.65     -307884.05      1104128      
   2070000   400.41816      28.144384     -308071.12      7.275676      -311305.95     -308051.73      1103827.7    
   2071000   392.30616      136.0719      -308235.39      7.2783768     -311404.69     -308141.68      1103418.1    
   2072000   380.57433     -36.835153     -308405.37      7.2796824     -311479.89     -308430.74      1103220.2    
   2073000   371.73531      101.82025     -308569.21      7.2836262     -311572.32     -308499.14      1102622.9    
   2074000   361.9139       125.89229     -308734.93      7.2858825     -311658.7      -308648.31      1102281.4    
   2075000   350.34999      174.73364     -308900.23      7.2884591     -311730.58     -308780.06      1101891.7    
   2076000   341.56022     -99.548502     -309071.07      7.2890051     -311830.41     -309139.53      1101809.2    
   2077000   332.13961      4.6973705     -309233.21      7.291897      -311916.44     -309229.98      1101372.2    
   2078000   322.24733     -133.98025     -309399.37      7.2931455     -312002.69     -309491.46      1101183.7    
   2079000   309.90567      55.950592     -309568.83      7.2969166     -312072.44     -309530.39      1100614.6    
   2080000   300.64361      57.59668      -309731.22      7.2990203     -312160.01     -309691.66      1100297.4    
Loop time of 774.121 on 36 procs for 40000 steps with 62500 atoms

Performance: 4.464 ns/day, 5.376 hours/ns, 51.671 timesteps/s, 3.229 Matom-step/s
99.6% CPU use with 36 MPI tasks x no OpenMP threads

MPI task timing breakdown:
Section |  min time  |  avg time  |  max time  |%varavg| %total
---------------------------------------------------------------
Pair    | 741.68     | 746.75     | 751.18     |   9.2 | 96.46
Neigh   | 12.066     | 12.366     | 12.579     |   3.5 |  1.60
Comm    | 4.9182     | 9.4393     | 14.688     |  84.7 |  1.22
Output  | 0.0039766  | 0.0041339  | 0.0091209  |   1.3 |  0.00
Modify  | 4.3771     | 4.4682     | 4.5447     |   2.3 |  0.58
Other   |            | 1.092      |            |       |  0.14

Nlocal:        1736.11 ave        1762 max        1711 min
Histogram: 1 1 1 10 8 6 4 4 0 1
Nghost:        2452.25 ave        2481 max        2428 min
Histogram: 2 2 4 7 7 4 3 4 2 1
Neighs:        30587.5 ave       31162 max       30063 min
Histogram: 2 1 4 9 6 3 2 6 2 1
FullNghs:      61174.9 ave       62397 max       60157 min
Histogram: 2 2 6 7 6 2 6 3 0 2

Total # of neighbors = 2202298
Ave neighs/atom = 35.236768
Neighbor list builds = 3237
Dangerous builds = 0
unfix NPT
unfix OUT
write_restart restart.anneal_700K
System init for write_restart ...

Total wall time: 35:13:55
